
     Program PWSCF v.7.2 starts on 14Dec2023 at 21:16: 8 

     This program is part of the open-source Quantum ESPRESSO suite
     for quantum simulation of materials; please cite
         "P. Giannozzi et al., J. Phys.:Condens. Matter 21 395502 (2009);
         "P. Giannozzi et al., J. Phys.:Condens. Matter 29 465901 (2017);
         "P. Giannozzi et al., J. Chem. Phys. 152 154105 (2020);
          URL http://www.quantum-espresso.org", 
     in publications or presentations arising from this work. More details at
     http://www.quantum-espresso.org/quote

     Parallel version (MPI), running on   256 processors

     MPI processes distributed on    16 nodes
     155246 MiB available memory on the printing compute node when the environment starts
 
     Reading input from nscf.in
Warning: card &IONS ignored
Warning: card / ignored
Warning: card &CELL ignored
Warning: card / ignored

     Current dimensions of program PWSCF are:
     Max number of different atomic species (ntypx) = 10
     Max number of k-points (npk) =  40000
     Max angular momentum in pseudopotentials (lmaxx) =  4

     Atomic positions and unit cell read from directory:
     temp/pwscf.save/
     Atomic positions from file used, from input discarded
 

     IMPORTANT: XC functional enforced from input :
     Exchange-correlation= HSE
                           (   1   4  12   4   0   0   0)
     EXX-fraction              =        0.25
     Any further DFT definition will be discarded
     Please, verify this is what you really want

     EXX fraction changed:   0.38

     gamma-point specific algorithms are used
 
     band groups division:  nbgrp     =       8
     R & G space division:  proc/nbgrp/npool/nimage =      32
     Subspace diagonalization in iterative solution of the eigenvalue problem:
     a serial algorithm will be used

     EXX: q-point mesh:     1    1    1
     EXX: grid of k+q points same as grid of k-points
 
     Parallelization info
     --------------------
     sticks:   dense  smooth     PW     G-vecs:    dense   smooth      PW
     Min         414     414    102                46530    46530    5806
     Max         416     416    106                46540    46540    5824
     Sum       13273   13273   3319              1489031  1489031  186077
 
     Using Slab Decomposition
 


     bravais-lattice index     =            0
     lattice parameter (alat)  =      24.5558  a.u.
     unit-cell volume          =   15406.2245 (a.u.)^3
     number of atoms/cell      =          191
     number of atomic types    =            4
     number of electrons       =      2482.00
     number of Kohn-Sham states=         3000
     kinetic-energy cutoff     =      80.0000  Ry
     charge density cutoff     =     320.0000  Ry
     cutoff for Fock operator  =     160.0000  Ry
     Exchange-correlation= HSE
                           (   1   4  12   4   0   0   0)
     EXX-fraction              =        0.38

     celldm(1)=  24.555771  celldm(2)=   0.000000  celldm(3)=   0.000000
     celldm(4)=   0.000000  celldm(5)=   0.000000  celldm(6)=   0.000000

     crystal axes: (cart. coord. in units of alat)
               a(1) = (   1.000000   0.000000   0.000000 )  
               a(2) = (  -0.500000   0.866025   0.000000 )  
               a(3) = (   0.000000   0.000000   1.201448 )  

     reciprocal axes: (cart. coord. in units 2 pi/alat)
               b(1) = (  1.000000  0.577350  0.000000 )  
               b(2) = (  0.000000  1.154701  0.000000 )  
               b(3) = (  0.000000  0.000000  0.832329 )  


     PseudoPot. # 1 for Zn read from file:
     ~/Pseudopotential/pseudo-ONCV-proj/Zn_ONCV_PBE-1.0.upf
     MD5 check sum: ae6b10b2f6b19ce60903c0642ac7817b
     Pseudo is Norm-conserving, Zval = 20.0
     Generated using ONCVPSP code by D. R. Hamann
     Using radial grid of 1326 points,  6 beta functions with: 
                l(1) =   0
                l(2) =   0
                l(3) =   1
                l(4) =   1
                l(5) =   2
                l(6) =   2

     PseudoPot. # 2 for Zn read from file:
     ~/Pseudopotential/pseudo-ONCV-proj/Zn_ONCV_PBE-1.0.upf
     MD5 check sum: ae6b10b2f6b19ce60903c0642ac7817b
     Pseudo is Norm-conserving, Zval = 20.0
     Generated using ONCVPSP code by D. R. Hamann
     Using radial grid of 1326 points,  6 beta functions with: 
                l(1) =   0
                l(2) =   0
                l(3) =   1
                l(4) =   1
                l(5) =   2
                l(6) =   2

     PseudoPot. # 3 for O  read from file:
     ~/Pseudopotential/pseudo-ONCV-proj/O_ONCV_PBE-1.0.upf
     MD5 check sum: 4746e673ba7a0ba6c5be19d6c81ea579
     Pseudo is Norm-conserving, Zval =  6.0
     Generated using ONCVPSP code by D. R. Hamann
     Using radial grid of  936 points,  4 beta functions with: 
                l(1) =   0
                l(2) =   0
                l(3) =   1
                l(4) =   1

     PseudoPot. # 4 for Nb read from file:
     ~/Pseudopotential/pseudo-ONCV-proj/Nb_ONCV_PBE-1.0.upf
     MD5 check sum: bb105f27670fb46043c2146d76815317
     Pseudo is Norm-conserving, Zval = 13.0
     Generated using ONCVPSP code by D. R. Hamann
     Using radial grid of 1564 points,  6 beta functions with: 
                l(1) =   0
                l(2) =   0
                l(3) =   1
                l(4) =   1
                l(5) =   2
                l(6) =   2

     atomic species   valence    mass     pseudopotential
        Zn1           20.00    65.39000     Zn( 1.00)
        Zn            20.00    65.39000     Zn( 1.00)
        O              6.00    15.99940     O ( 1.00)
        Nb            13.00    92.90638     Nb( 1.00)

     Starting magnetic structure 
     atomic species   magnetization
        Zn1          0.500
        Zn           0.000
        O            0.000
        Nb           1.000

     No symmetry found


                                    s                        frac. trans.

      isym =  1     identity                                     

 cryst.   s( 1) = (     1          0          0      )
                  (     0          1          0      )
                  (     0          0          1      )

 cart.    s( 1) = (  1.0000000  0.0000000  0.0000000 )
                  (  0.0000000  1.0000000  0.0000000 )
                  (  0.0000000  0.0000000  1.0000000 )


   Cartesian axes

     site n.     atom                  positions (alat units)
         1           Zn  tau(   1) = (   0.1249110   0.0722201   0.1993328  )
         2           Zn  tau(   2) = (   0.1251042   0.0721086   0.6013137  )
         3           Zn  tau(   3) = (   0.1248852   0.0722351   1.0015034  )
         4           Zn  tau(   4) = (  -0.0002056   0.2885472   0.1997708  )
         5           Zn  tau(   5) = (  -0.0004982   0.2883931   0.6010211  )
         6           Zn  tau(   6) = (   0.0000266   0.2886747   1.0015505  )
         7           Zn  tau(   7) = (  -0.1249999   0.5050699   0.1993361  )
         8           Zn  tau(   8) = (  -0.1249950   0.5053323   0.6013061  )
         9           Zn  tau(   9) = (  -0.1250008   0.5050399   1.0015236  )
        10           Zn  tau(  10) = (  -0.2499270   0.7217293   0.1993447  )
        11           Zn  tau(  11) = (  -0.2493246   0.7220912   0.6012722  )
        12           Zn  tau(  12) = (  -0.2499100   0.7217468   1.0017931  )
        13           Zn  tau(  13) = (   0.3750005   0.0720848   0.1993447  )
        14           Zn  tau(  14) = (   0.3749883   0.0713821   0.6012722  )
        15           Zn  tau(  15) = (   0.3749939   0.0720613   1.0017931  )
        16           Zn  tau(  16) = (   0.2493206   0.2882054   0.1996078  )
        17           Zn  tau(  17) = (   0.2459922   0.2844998   0.6036182  )
        18           Zn  tau(  18) = (   0.2511543   0.2894290   1.0004209  )
        19           Zn  tau(  19) = (   0.1242474   0.5048258   0.1996031  )
        20           Zn  tau(  20) = (   0.1193579   0.5038257   0.6036215  )
        21           Zn  tau(  21) = (   0.1261721   0.5058125   1.0004431  )
        22           Zn  tau(  22) = (  -0.0000837   0.7217361   0.1993439  )
        23           Zn  tau(  23) = (  -0.0007050   0.7220948   0.6012807  )
        24           Zn  tau(  24) = (  -0.0001334   0.7217648   1.0018086  )
        25           Zn  tau(  25) = (   0.6250967   0.0722244   0.1993361  )
        26           Zn  tau(  26) = (   0.6248718   0.0720890   0.6013061  )
        27           Zn  tau(  27) = (   0.6251221   0.0722402   1.0015236  )
        28           Zn  tau(  28) = (   0.5006905   0.2882038   0.1996105  )
        29           Zn  tau(  29) = (   0.5040440   0.2844787   0.6036220  )
        30           Zn  tau(  30) = (   0.4989037   0.2893959   1.0004391  )
        31           Zn  tau(  31) = (   0.3749946   0.5051846   0.2013690  )
        32           Zn  tau(  32) = (   0.3749896   0.5051875   1.0025882  )
        33           Zn  tau(  33) = (   0.2499318   0.7225174   0.1996031  )
        34           Zn  tau(  34) = (   0.2483531   0.7272519   0.6036215  )
        35           Zn  tau(  35) = (   0.2500396   0.7203572   1.0004431  )
        36           Zn  tau(  36) = (   0.8750080   0.0724108   0.1997708  )
        37           Zn  tau(  37) = (   0.8749951   0.0727413   0.6010211  )
        38           Zn  tau(  38) = (   0.8750137   0.0721460   1.0015505  )
        39           Zn  tau(  39) = (   0.7502274   0.2885439   0.1997737  )
        40           Zn  tau(  40) = (   0.7505465   0.2883596   0.6010479  )
        41           Zn  tau(  41) = (   0.7500382   0.2886530   1.0015661  )
        42           Zn  tau(  42) = (   0.6257534   0.5048191   0.1996105  )
        43           Zn  tau(  43) = (   0.6306563   0.5037774   0.6036220  )
        44           Zn  tau(  44) = (   0.6238276   0.5057705   1.0004391  )
        45           Zn  tau(  45) = (   0.5000671   0.7225110   0.1996078  )
        46           Zn  tau(  46) = (   0.5016121   0.7272463   0.6036182  )
        47           Zn  tau(  47) = (   0.4999243   0.7203112   1.0004209  )
        48           Zn  tau(  48) = (  -0.0000581   0.1443711  -0.0000461  )
        49           Zn  tau(  49) = (  -0.0000392   0.1443602   0.4000778  )
        50           Zn  tau(  50) = (   0.0001562   0.1442474   0.8013923  )
        51           Zn  tau(  51) = (  -0.1249955   0.3607752  -0.0000374  )
        52           Zn  tau(  52) = (  -0.1249969   0.3608030   0.4000786  )
        53           Zn  tau(  53) = (  -0.1249657   0.3610611   0.8014068  )
        54           Zn  tau(  54) = (  -0.2501064   0.5772511   1.2010348  )
        55           Zn  tau(  55) = (  -0.2490692   0.5777457   0.3994930  )
        56           Zn  tau(  56) = (  -0.2508155   0.5776757   0.8023537  )
        57           Zn  tau(  57) = (  -0.3751506   0.7938147   1.2010279  )
        58           Zn  tau(  58) = (  -0.3742049   0.7944716   0.3994924  )
        59           Zn  tau(  59) = (  -0.3751678   0.7929804   0.8023548  )
        60           Zn  tau(  60) = (   0.2499609   0.1444889   1.2010279  )
        61           Zn  tau(  61) = (   0.2498649   0.1433415   0.3994924  )
        62           Zn  tau(  62) = (   0.2506749   0.1449209   0.8023548  )
        63           Zn  tau(  63) = (   0.1251416   0.3609296   1.2008461  )
        64           Zn  tau(  64) = (   0.1242338   0.3604086   0.4001131  )
        65           Zn  tau(  65) = (   0.1253180   0.3610737   0.8025859  )
        66           Zn  tau(  66) = (   0.0000968   0.5772487   1.2010416  )
        67           Zn  tau(  67) = (  -0.0009410   0.5777493   0.3994912  )
        68           Zn  tau(  68) = (   0.0008036   0.5777058   0.8023596  )
        69           Zn  tau(  69) = (  -0.1250097   0.7938622  -0.0000034  )
        70           Zn  tau(  70) = (  -0.1250090   0.7938618   0.3995817  )
        71           Zn  tau(  71) = (  -0.1250524   0.7938868   0.8015839  )
        72           Zn  tau(  72) = (   0.5000326   0.1444793   1.2010348  )
        73           Zn  tau(  73) = (   0.5001229   0.1433338   0.3994930  )
        74           Zn  tau(  74) = (   0.4993103   0.1448811   0.8023537  )
        75           Zn  tau(  75) = (   0.3750111   0.3608129   0.0010419  )
        76           Zn  tau(  76) = (   0.3750079   0.3583469   0.3962308  )
        77           Zn  tau(  77) = (   0.3750776   0.3728766   0.7966727  )
        78           Zn  tau(  78) = (   0.2499688   0.5773682   0.0010417  )
        79           Zn  tau(  79) = (   0.2478200   0.5786089   0.3962367  )
        80           Zn  tau(  80) = (   0.2603746   0.5713605   0.7966939  )
        81           Zn  tau(  81) = (   0.1251364   0.7938235   1.2010416  )
        82           Zn  tau(  82) = (   0.1241839   0.7944720   0.3994912  )
        83           Zn  tau(  83) = (   0.1250939   0.7929828   0.8023596  )
        84           Zn  tau(  84) = (   0.7500617   0.1443680  -0.0000374  )
        85           Zn  tau(  85) = (   0.7500370   0.1443553   0.4000786  )
        86           Zn  tau(  86) = (   0.7498290   0.1441992   0.8014068  )
        87           Zn  tau(  87) = (   0.6248592   0.3609252   1.2008662  )
        88           Zn  tau(  88) = (   0.6257753   0.3603963   0.4001133  )
        89           Zn  tau(  89) = (   0.6247657   0.3609792   0.8026163  )
        90           Zn  tau(  90) = (   0.5000324   0.5773561   0.0010419  )
        91           Zn  tau(  91) = (   0.5021664   0.5785919   0.3962308  )
        92           Zn  tau(  92) = (   0.4896182   0.5712667   0.7966727  )
        93           Zn  tau(  93) = (   0.3749966   0.7936911   1.2008461  )
        94           Zn  tau(  94) = (   0.3749939   0.7947377   0.4001131  )
        95           Zn  tau(  95) = (   0.3749600   0.7934663   0.8025859  )
        96           O   tau(  96) = (   0.1248050   0.0722813   0.3525260  )
        97           O   tau(  97) = (   0.1254905   0.0718856   0.7536076  )
        98           O   tau(  98) = (   0.1249514   0.0721968   1.1541558  )
        99           O   tau(  99) = (  -0.0000146   0.2886594   0.3529910  )
       100           O   tau( 100) = (   0.0005508   0.2889865   0.7532638  )
       101           O   tau( 101) = (   0.0000891   0.2887172   1.1541694  )
       102           O   tau( 102) = (  -0.1250012   0.5049482   0.3525301  )
       103           O   tau( 103) = (  -0.1249832   0.5057675   0.7536006  )
       104           O   tau( 104) = (  -0.1249967   0.5051103   1.1541705  )
       105           O   tau( 105) = (  -0.2500396   0.7216655   0.3525074  )
       106           O   tau( 106) = (  -0.2501273   0.7216325   0.7533261  )
       107           O   tau( 107) = (  -0.2500012   0.7216825   1.1543000  )
       108           O   tau( 108) = (   0.3749995   0.0722142   0.3525074  )
       109           O   tau( 109) = (   0.3749842   0.0723067   0.7533261  )
       110           O   tau( 110) = (   0.3750039   0.0721725   1.1543000  )
       111           O   tau( 111) = (   0.2497824   0.2885630   0.3536372  )
       112           O   tau( 112) = (   0.2515756   0.2901872   0.7541853  )
       113           O   tau( 113) = (   0.2505690   0.2890673   1.1535723  )
       114           O   tau( 114) = (   0.1247847   0.5050387   0.3536287  )
       115           O   tau( 115) = (   0.1269959   0.5058480   0.7541907  )
       116           O   tau( 116) = (   0.1256099   0.5054795   1.1535874  )
       117           O   tau( 117) = (   0.0000309   0.7216700   0.3525065  )
       118           O   tau( 118) = (   0.0000530   0.7216572   0.7533329  )
       119           O   tau( 119) = (  -0.0000013   0.7216885   1.1543125  )
       120           O   tau( 120) = (   0.6252014   0.0722865   0.3525301  )
       121           O   tau( 121) = (   0.6245009   0.0718612   0.7536006  )
       122           O   tau( 122) = (   0.6250632   0.0722015   1.1541705  )
       123           O   tau( 123) = (   0.5002356   0.2885609   0.3536380  )
       124           O   tau( 124) = (   0.4985427   0.2900950   0.7541886  )
       125           O   tau( 125) = (   0.4994619   0.2890523   1.1535857  )
       126           O   tau( 126) = (   0.3749961   0.5051837   0.3582663  )
       127           O   tau( 127) = (   0.3750038   0.5051792   1.1547359  )
       128           O   tau( 128) = (   0.2500160   0.7219456   0.3536287  )
       129           O   tau( 129) = (   0.2504207   0.7196261   0.7541907  )
       130           O   tau( 130) = (   0.2500468   0.7210106   1.1535874  )
       131           O   tau( 131) = (   0.8750063   0.0721893   0.3529910  )
       132           O   tau( 132) = (   0.8750057   0.0715361   0.7532638  )
       133           O   tau( 133) = (   0.8750081   0.0720705   1.1541694  )
       134           O   tau( 134) = (   0.7500363   0.2886542   0.3529918  )
       135           O   tau( 135) = (   0.7495554   0.2889318   0.7532778  )
       136           O   tau( 136) = (   0.7499368   0.2887116   1.1541827  )
       137           O   tau( 137) = (   0.6252168   0.5050346   0.3536380  )
       138           O   tau( 138) = (   0.6230417   0.5057336   0.7541886  )
       139           O   tau( 139) = (   0.6244043   0.5054588   1.1535857  )
       140           O   tau( 140) = (   0.4999883   0.7219323   0.3536372  )
       141           O   tau( 141) = (   0.4994783   0.7195672   0.7541853  )
       142           O   tau( 142) = (   0.4999448   0.7209989   1.1535723  )
       143           O   tau( 143) = (  -0.0000508   0.1443669   0.1528759  )
       144           O   tau( 144) = (   0.0002617   0.1441865   0.5530789  )
       145           O   tau( 145) = (  -0.0000468   0.1443646   0.9536431  )
       146           O   tau( 146) = (  -0.1249991   0.3607862   0.1528821  )
       147           O   tau( 147) = (  -0.1249894   0.3611846   0.5530772  )
       148           O   tau( 148) = (  -0.1249858   0.3607969   0.9536524  )
       149           O   tau( 149) = (  -0.2500858   0.5772909   0.1526930  )
       150           O   tau( 150) = (  -0.2498342   0.5778145   0.5525303  )
       151           O   tau( 151) = (  -0.2502380   0.5773261   0.9542721  )
       152           O   tau( 152) = (  -0.3751010   0.7938157   0.1526895  )
       153           O   tau( 153) = (  -0.3745497   0.7937906   0.5525322  )
       154           O   tau( 154) = (  -0.3751633   0.7936584   0.9542650  )
       155           O   tau( 155) = (   0.2499849   0.1444455   0.1526895  )
       156           O   tau( 156) = (   0.2502822   0.1439806   0.5525322  )
       157           O   tau( 157) = (   0.2500899   0.1445780   0.9542650  )
       158           O   tau( 158) = (   0.1249831   0.3608382   0.1527687  )
       159           O   tau( 159) = (   0.1259129   0.3613932   0.5533402  )
       160           O   tau( 160) = (   0.1251464   0.3609471   0.9543087  )
       161           O   tau( 161) = (   0.0000686   0.5772974   0.1526948  )
       162           O   tau( 162) = (  -0.0001769   0.5778192   0.5525243  )
       163           O   tau( 163) = (   0.0002158   0.5773466   0.9542809  )
       164           O   tau( 164) = (  -0.1250128   0.7938640   0.1528254  )
       165           O   tau( 165) = (  -0.1250219   0.7938692   0.5524178  )
       166           O   tau( 166) = (  -0.1250295   0.7938736   0.9538424  )
       167           O   tau( 167) = (   0.5000084   0.1444416   0.1526930  )
       168           O   tau( 168) = (   0.4996808   0.1439618   0.5525303  )
       169           O   tau( 169) = (   0.4999019   0.1445557   0.9542721  )
       170           O   tau( 170) = (   0.3750044   0.3611706   0.1548093  )
       171           O   tau( 171) = (   0.3750326   0.3620150   0.5559866  )
       172           O   tau( 172) = (   0.3750425   0.3625081   0.9497081  )
       173           O   tau( 173) = (   0.2502683   0.5771954   0.1548082  )
       174           O   tau( 174) = (   0.2509946   0.5767760   0.5559904  )
       175           O   tau( 175) = (   0.2514005   0.5765417   0.9497219  )
       176           O   tau( 176) = (   0.1250801   0.7938236   0.1526948  )
       177           O   tau( 177) = (   0.1245054   0.7937753   0.5525243  )
       178           O   tau( 178) = (   0.1251111   0.7936716   0.9542809  )
       179           O   tau( 179) = (   0.7500504   0.1443657   0.1528821  )
       180           O   tau( 180) = (   0.7497102   0.1441581   0.5530772  )
       181           O   tau( 181) = (   0.7500478   0.1443488   0.9536524  )
       182           O   tau( 182) = (   0.6250197   0.3608325   0.1527795  )
       183           O   tau( 183) = (   0.6241373   0.3613420   0.5533389  )
       184           O   tau( 184) = (   0.6248941   0.3609050   0.9543254  )
       185           O   tau( 185) = (   0.4997193   0.5771831   0.1548093  )
       186           O   tau( 186) = (   0.4990021   0.5767365   0.5559866  )
       187           O   tau( 187) = (   0.4985800   0.5764813   0.9497081  )
       188           O   tau( 188) = (   0.3749965   0.7938741   0.1527687  )
       189           O   tau( 189) = (   0.3749807   0.7927913   0.5533402  )
       190           O   tau( 190) = (   0.3749838   0.7936782   0.9543087  )
       191           Nb  tau( 191) = (   0.3749847   0.5051903   0.6064773  )

   Crystallographic axes

     site n.     atom                  positions (cryst. coord.)
         1           Zn  tau(   1) = (  0.1666074  0.0833926  0.1659105  )
         2           Zn  tau(   2) = (  0.1667361  0.0832638  0.5004909  )
         3           Zn  tau(   3) = (  0.1665901  0.0834099  0.8335804  )
         4           Zn  tau(   4) = (  0.1663872  0.3331857  0.1662750  )
         5           Zn  tau(   5) = (  0.1660056  0.3330077  0.5002473  )
         6           Zn  tau(   6) = (  0.1666930  0.3333328  0.8336196  )
         7           Zn  tau(   7) = (  0.1666024  0.5832045  0.1659133  )
         8           Zn  tau(   8) = (  0.1667587  0.5835075  0.5004846  )
         9           Zn  tau(   9) = (  0.1665841  0.5831699  0.8335972  )
        10           Zn  tau(  10) = (  0.1667637  0.8333813  0.1659204  )
        11           Zn  tau(  11) = (  0.1675750  0.8337992  0.5004563  )
        12           Zn  tau(  12) = (  0.1667907  0.8334014  0.8338215  )
        13           Zn  tau(  13) = (  0.4166187  0.0832363  0.1659204  )
        14           Zn  tau(  14) = (  0.4162008  0.0824250  0.5004563  )
        15           Zn  tau(  15) = (  0.4165986  0.0832093  0.8338215  )
        16           Zn  tau(  16) = (  0.4157161  0.3327910  0.1661394  )
        17           Zn  tau(  17) = (  0.4102482  0.3285120  0.5024090  )
        18           Zn  tau(  18) = (  0.4182562  0.3342039  0.8326794  )
        19           Zn  tau(  19) = (  0.4157087  0.5829226  0.1661355  )
        20           Zn  tau(  20) = (  0.4102418  0.5817678  0.5024117  )
        21           Zn  tau(  21) = (  0.4182031  0.5840620  0.8326979  )
        22           Zn  tau(  22) = (  0.4166109  0.8333891  0.1659197  )
        23           Zn  tau(  23) = (  0.4161966  0.8338034  0.5004635  )
        24           Zn  tau(  24) = (  0.4165777  0.8334223  0.8338345  )
        25           Zn  tau(  25) = (  0.6667955  0.0833976  0.1659133  )
        26           Zn  tau(  26) = (  0.6664925  0.0832413  0.5004846  )
        27           Zn  tau(  27) = (  0.6668301  0.0834159  0.8335972  )
        28           Zn  tau(  28) = (  0.6670851  0.3327891  0.1661416  )
        29           Zn  tau(  29) = (  0.6682879  0.3284877  0.5024122  )
        30           Zn  tau(  30) = (  0.6659865  0.3341656  0.8326946  )
        31           Zn  tau(  31) = (  0.6666631  0.5833369  0.1676052  )
        32           Zn  tau(  32) = (  0.6666597  0.5833403  0.8344834  )
        33           Zn  tau(  33) = (  0.6670774  0.8342913  0.1661355  )
        34           Zn  tau(  34) = (  0.6682322  0.8397582  0.5024117  )
        35           Zn  tau(  35) = (  0.6659380  0.8317969  0.8326979  )
        36           Zn  tau(  36) = (  0.9168143  0.0836128  0.1662750  )
        37           Zn  tau(  37) = (  0.9169923  0.0839944  0.5002473  )
        38           Zn  tau(  38) = (  0.9166672  0.0833070  0.8336196  )
        39           Zn  tau(  39) = (  0.9168182  0.3331818  0.1662774  )
        40           Zn  tau(  40) = (  0.9170310  0.3329690  0.5002697  )
        41           Zn  tau(  41) = (  0.9166922  0.3333078  0.8336326  )
        42           Zn  tau(  42) = (  0.9172109  0.5829149  0.1661416  )
        43           Zn  tau(  43) = (  0.9215123  0.5817121  0.5024122  )
        44           Zn  tau(  44) = (  0.9158344  0.5840135  0.8326946  )
        45           Zn  tau(  45) = (  0.9172090  0.8342839  0.1661394  )
        46           Zn  tau(  46) = (  0.9214880  0.8397518  0.5024090  )
        47           Zn  tau(  47) = (  0.9157961  0.8317438  0.8326794  )
        48           Zn  tau(  48) = (  0.0832946  0.1667054 -0.0000384  )
        49           Zn  tau(  49) = (  0.0833072  0.1666928  0.3329964  )
        50           Zn  tau(  50) = (  0.0834375  0.1665625  0.6670221  )
        51           Zn  tau(  51) = (  0.0832982  0.4165874 -0.0000311  )
        52           Zn  tau(  52) = (  0.0833128  0.4166194  0.3329971  )
        53           Zn  tau(  53) = (  0.0834930  0.4169175  0.6670342  )
        54           Zn  tau(  54) = (  0.0831697  0.6665522  0.9996563  )
        55           Zn  tau(  55) = (  0.0844924  0.6671233  0.3325096  )
        56           Zn  tau(  56) = (  0.0827057  0.6670425  0.6678224  )
        57           Zn  tau(  57) = (  0.0831586  0.9166184  0.9996505  )
        58           Zn  tau(  58) = (  0.0844835  0.9173769  0.3325092  )
        59           Zn  tau(  59) = (  0.0826597  0.9156550  0.6678233  )
        60           Zn  tau(  60) = (  0.3333816  0.1668414  0.9996505  )
        61           Zn  tau(  61) = (  0.3326231  0.1655165  0.3325092  )
        62           Zn  tau(  62) = (  0.3343450  0.1673403  0.6678233  )
        63           Zn  tau(  63) = (  0.3335244  0.4167656  0.9994992  )
        64           Zn  tau(  64) = (  0.3323159  0.4161641  0.3330258  )
        65           Zn  tau(  65) = (  0.3337840  0.4169320  0.6680156  )
        66           Zn  tau(  66) = (  0.3333715  0.6665494  0.9996619  )
        67           Zn  tau(  67) = (  0.3326227  0.6671274  0.3325082  )
        68           Zn  tau(  68) = (  0.3343422  0.6670773  0.6678273  )
        69           Zn  tau(  69) = (  0.3333269  0.9166731 -0.0000028  )
        70           Zn  tau(  70) = (  0.3333273  0.9166727  0.3325835  )
        71           Zn  tau(  71) = (  0.3332984  0.9167016  0.6671816  )
        72           Zn  tau(  72) = (  0.5834478  0.1668303  0.9996563  )
        73           Zn  tau(  73) = (  0.5828767  0.1655076  0.3325096  )
        74           Zn  tau(  74) = (  0.5829575  0.1672943  0.6678224  )
        75           Zn  tau(  75) = (  0.5833265  0.4166309  0.0008672  )
        76           Zn  tau(  76) = (  0.5818995  0.4137833  0.3297944  )
        77           Zn  tau(  77) = (  0.5903580  0.4305608  0.6630939  )
        78           Zn  tau(  78) = (  0.5833125  0.6666875  0.0008670  )
        79           Zn  tau(  79) = (  0.5818800  0.6681200  0.3297993  )
        80           Zn  tau(  80) = (  0.5902497  0.6597503  0.6631116  )
        81           Zn  tau(  81) = (  0.5834506  0.9166285  0.9996619  )
        82           Zn  tau(  82) = (  0.5828726  0.9173773  0.3325082  )
        83           Zn  tau(  83) = (  0.5829227  0.9156578  0.6678273  )
        84           Zn  tau(  84) = (  0.8334126  0.1667018 -0.0000311  )
        85           Zn  tau(  85) = (  0.8333806  0.1666872  0.3329971  )
        86           Zn  tau(  86) = (  0.8330825  0.1665070  0.6670342  )
        87           Zn  tau(  87) = (  0.8332394  0.4167606  0.9995159  )
        88           Zn  tau(  88) = (  0.8338502  0.4161498  0.3330260  )
        89           Zn  tau(  89) = (  0.8331771  0.4168229  0.6680409  )
        90           Zn  tau(  90) = (  0.8333691  0.6666735  0.0008672  )
        91           Zn  tau(  91) = (  0.8362167  0.6681005  0.3297944  )
        92           Zn  tau(  92) = (  0.8194392  0.6596420  0.6630939  )
        93           Zn  tau(  93) = (  0.8332344  0.9164756  0.9994992  )
        94           Zn  tau(  94) = (  0.8338359  0.9176841  0.3330258  )
        95           Zn  tau(  95) = (  0.8330680  0.9162160  0.6680156  )
        96           O   tau(  96) = (  0.1665367  0.0834633  0.2934177  )
        97           O   tau(  97) = (  0.1669937  0.0830063  0.6272495  )
        98           O   tau(  98) = (  0.1666343  0.0833657  0.9606375  )
        99           O   tau(  99) = (  0.1666430  0.3333152  0.2938047  )
       100           O   tau( 100) = (  0.1673972  0.3336929  0.6269634  )
       101           O   tau( 101) = (  0.1667801  0.3333820  0.9606488  )
       102           O   tau( 102) = (  0.1665308  0.5830640  0.2934211  )
       103           O   tau( 103) = (  0.1670218  0.5840101  0.6272437  )
       104           O   tau( 104) = (  0.1666289  0.5832512  0.9606497  )
       105           O   tau( 105) = (  0.1666142  0.8333076  0.2934022  )
       106           O   tau( 106) = (  0.1665074  0.8332695  0.6270153  )
       107           O   tau( 107) = (  0.1666623  0.8333272  0.9607575  )
       108           O   tau( 108) = (  0.4166924  0.0833858  0.2934022  )
       109           O   tau( 109) = (  0.4167305  0.0834925  0.6270153  )
       110           O   tau( 110) = (  0.4166728  0.0833376  0.9607575  )
       111           O   tau( 111) = (  0.4163844  0.3332039  0.2943425  )
       112           O   tau( 112) = (  0.4191153  0.3350794  0.6277304  )
       113           O   tau( 113) = (  0.4174621  0.3337862  0.9601518  )
       114           O   tau( 114) = (  0.4163690  0.5831685  0.2943354  )
       115           O   tau( 115) = (  0.4190473  0.5841030  0.6277349  )
       116           O   tau( 116) = (  0.4174486  0.5836775  0.9601643  )
       117           O   tau( 117) = (  0.4166872  0.8333128  0.2934014  )
       118           O   tau( 118) = (  0.4167020  0.8332980  0.6270209  )
       119           O   tau( 119) = (  0.4166658  0.8333342  0.9607679  )
       120           O   tau( 120) = (  0.6669360  0.0834692  0.2934211  )
       121           O   tau( 121) = (  0.6659899  0.0829782  0.6272437  )
       122           O   tau( 122) = (  0.6667488  0.0833711  0.9606497  )
       123           O   tau( 123) = (  0.6668363  0.3332014  0.2943432  )
       124           O   tau( 124) = (  0.6660291  0.3349729  0.6277332  )
       125           O   tau( 125) = (  0.6663464  0.3337689  0.9601630  )
       126           O   tau( 126) = (  0.6666640  0.5833360  0.2981955  )
       127           O   tau( 127) = (  0.6666692  0.5833308  0.9611203  )
       128           O   tau( 128) = (  0.6668315  0.8336310  0.2943354  )
       129           O   tau( 129) = (  0.6658970  0.8309527  0.6277349  )
       130           O   tau( 130) = (  0.6663225  0.8325514  0.9601643  )
       131           O   tau( 131) = (  0.9166848  0.0833570  0.2938047  )
       132           O   tau( 132) = (  0.9163071  0.0826028  0.6269634  )
       133           O   tau( 133) = (  0.9166180  0.0832199  0.9606488  )
       134           O   tau( 134) = (  0.9166908  0.3333092  0.2938053  )
       135           O   tau( 135) = (  0.9163703  0.3336297  0.6269751  )
       136           O   tau( 136) = (  0.9166245  0.3333755  0.9606598  )
       137           O   tau( 137) = (  0.9167986  0.5831637  0.2943432  )
       138           O   tau( 138) = (  0.9150271  0.5839709  0.6277332  )
       139           O   tau( 139) = (  0.9162311  0.5836536  0.9601630  )
       140           O   tau( 140) = (  0.9167961  0.8336156  0.2943425  )
       141           O   tau( 141) = (  0.9149206  0.8308847  0.6277304  )
       142           O   tau( 142) = (  0.9162138  0.8325379  0.9601518  )
       143           O   tau( 143) = (  0.0832995  0.1667005  0.1272431  )
       144           O   tau( 144) = (  0.0835078  0.1664922  0.4603437  )
       145           O   tau( 145) = (  0.0833021  0.1666979  0.7937449  )
       146           O   tau( 146) = (  0.0833009  0.4166000  0.1272482  )
       147           O   tau( 147) = (  0.0835406  0.4170601  0.4603423  )
       148           O   tau( 148) = (  0.0833203  0.4166124  0.7937526  )
       149           O   tau( 149) = (  0.0832132  0.6665982  0.1270908  )
       150           O   tau( 150) = (  0.0837672  0.6672028  0.4598870  )
       151           O   tau( 151) = (  0.0830814  0.6666388  0.7942684  )
       152           O   tau( 152) = (  0.0832087  0.9166194  0.1270879  )
       153           O   tau( 153) = (  0.0837455  0.9165905  0.4598887  )
       154           O   tau( 154) = (  0.0830556  0.9164379  0.7942625  )
       155           O   tau( 155) = (  0.3333806  0.1667913  0.1270879  )
       156           O   tau( 156) = (  0.3334095  0.1662545  0.4598887  )
       157           O   tau( 157) = (  0.3335621  0.1669444  0.7942625  )
       158           O   tau( 158) = (  0.3333131  0.4166601  0.1271538  )
       159           O   tau( 159) = (  0.3345634  0.4173010  0.4605612  )
       160           O   tau( 160) = (  0.3335393  0.4167859  0.7942989  )
       161           O   tau( 161) = (  0.3333713  0.6666056  0.1270923  )
       162           O   tau( 162) = (  0.3334271  0.6672082  0.4598821  )
       163           O   tau( 163) = (  0.3335469  0.6666624  0.7942758  )
       164           O   tau( 164) = (  0.3333248  0.9166752  0.1272010  )
       165           O   tau( 165) = (  0.3333187  0.9166813  0.4597934  )
       166           O   tau( 166) = (  0.3333136  0.9166864  0.7939108  )
       167           O   tau( 167) = (  0.5834018  0.1667868  0.1270908  )
       168           O   tau( 168) = (  0.5827972  0.1662328  0.4598870  )
       169           O   tau( 169) = (  0.5833612  0.1669186  0.7942684  )
       170           O   tau( 170) = (  0.5835263  0.4170439  0.1288523  )
       171           O   tau( 171) = (  0.5840420  0.4180189  0.4627639  )
       172           O   tau( 172) = (  0.5843367  0.4185883  0.7904697  )
       173           O   tau( 173) = (  0.5835122  0.6664878  0.1288514  )
       174           O   tau( 174) = (  0.5839964  0.6660036  0.4627670  )
       175           O   tau( 175) = (  0.5842670  0.6657330  0.7904812  )
       176           O   tau( 176) = (  0.5833944  0.9166287  0.1270923  )
       177           O   tau( 177) = (  0.5827918  0.9165729  0.4598821  )
       178           O   tau( 178) = (  0.5833376  0.9164531  0.7942758  )
       179           O   tau( 179) = (  0.8334000  0.1666991  0.1272482  )
       180           O   tau( 180) = (  0.8329399  0.1664594  0.4603423  )
       181           O   tau( 181) = (  0.8333876  0.1666797  0.7937526  )
       182           O   tau( 182) = (  0.8333464  0.4166536  0.1271628  )
       183           O   tau( 183) = (  0.8327582  0.4172418  0.4605601  )
       184           O   tau( 184) = (  0.8332627  0.4167373  0.7943128  )
       185           O   tau( 185) = (  0.8329561  0.6664737  0.1288523  )
       186           O   tau( 186) = (  0.8319811  0.6659580  0.4627639  )
       187           O   tau( 187) = (  0.8314117  0.6656633  0.7904697  )
       188           O   tau( 188) = (  0.8333399  0.9166869  0.1271538  )
       189           O   tau( 189) = (  0.8326990  0.9154366  0.4605612  )
       190           O   tau( 190) = (  0.8332141  0.9164607  0.7942989  )
       191           Nb  tau( 191) = (  0.6666565  0.5833435  0.5047887  )

     number of k points=     1  Gaussian smearing, width (Ry)=  0.0001
                       cart. coord. in units 2pi/alat
        k(    1) = (   0.0000000   0.0000000   0.0000000), wk =   1.0000000

                       cryst. coord.
        k(    1) = (   0.0000000   0.0000000   0.0000000), wk =   1.0000000

     Dense  grid:   744516 G-vectors     FFT dimensions: ( 144, 144, 180)

     Dynamical RAM for                 wfc:     133.12 MB

     Dynamical RAM for     wfc (w. buffer):     133.12 MB

     Dynamical RAM for                 EXX:     487.68 MB

     Dynamical RAM for           str. fact:       1.42 MB

     Dynamical RAM for           local pot:       0.00 MB

     Dynamical RAM for          nlocal pot:     110.40 MB

     Dynamical RAM for                qrad:       5.74 MB

     Dynamical RAM for          rho,v,vnew:       7.83 MB

     Dynamical RAM for           G-vectors:       1.51 MB

     Dynamical RAM for          h,s,v(r/c):     823.97 MB

     Dynamical RAM for          <psi|beta>:      56.95 MB

     Dynamical RAM for                 psi:     266.24 MB

     Dynamical RAM for                hpsi:     266.24 MB

     Dynamical RAM for      wfcinit/wfcrot:     472.25 MB

     Estimated static dynamical RAM per process >     755.16 MB

     Estimated max dynamical RAM per process >       2.12 GB

     Estimated total dynamical RAM >     542.14 GB
     EXX: initializing ACE and reading from file
     ACE potential read for     1260 bands
     ACE potential read for     1260 bands
     Starting ACE correctly read from file
     Generating pointlists ...
     new r_m :   0.4125 (alat units) 10.1293 (a.u.) for type    1
     new r_m :   0.0617 (alat units)  1.5148 (a.u.) for type    2
     new r_m :   0.0617 (alat units)  1.5148 (a.u.) for type    3
     new r_m :   0.0626 (alat units)  1.5377 (a.u.) for type    4

     The potential is recalculated from file :
     temp/pwscf.save/charge-density

     Starting wfcs are 1340 randomized atomic wfcs + 1660 random wfcs

     Band Structure Calculation
     Davidson diagonalization with overlap

     Computing kpt #:     1  of     2
     total cpu time spent up to now is     1961.2 secs

     Computing kpt #:     2  of     2
     total cpu time spent up to now is     3939.8 secs

     ethr =  1.00E-13,  avg # of iterations = 37.0

     total cpu time spent up to now is     3944.3 secs

     End of band structure calculation

 ------ SPIN UP ------------


          k = 0.0000 0.0000 0.0000 ( 93039 PWs)   bands (ev):

  -124.3998-124.3995-124.3994-124.2916-124.2909-124.2909-124.2571-124.2571
  -124.2571-124.2570-124.2562-124.2561-124.0344-123.9809-123.9808-123.9802
  -123.9702-123.9699-123.9696-123.9692-123.9692-123.9691-123.9350-123.9348
  -123.9348-123.9317-123.9317-123.9314-123.9312-123.9312-123.9309-123.9055
  -123.9054-123.9054-123.9050-123.9049-123.9048-123.8967-123.8962-123.8954
  -123.8892-123.8888-123.8888-123.8876-123.8838-123.8838-123.8829-123.8825
  -123.8825-123.8824-123.8627-123.8624-123.8624-123.8569-123.8569-123.8567
  -123.8511-123.8488-123.8419-123.8419-123.8416-123.8399-123.8392-123.8391
  -123.8367-123.8366-123.8366-123.8263-123.8258-123.8257-123.8257-123.8252
  -123.8252-123.8174-123.8167-123.8165-123.8038-123.8037-123.8035-123.8032
  -123.8031-123.8031-123.7978-123.7977-123.7975-123.7962-123.7955-123.7952
  -123.7912-123.7912-123.7909-123.7894-123.7891-123.7891-123.7864 -75.9284
   -75.9253 -75.9253 -75.8949 -75.8948 -75.8936 -75.8930 -75.8928 -75.8927
   -75.8596 -75.8589 -75.8589 -75.8245 -75.8245 -75.8241 -75.8241 -75.8233
   -75.8232 -75.8183 -75.8175 -75.8172 -75.8087 -75.8081 -75.8080 -75.7822
   -75.7819 -75.7817 -75.7812 -75.7809 -75.7804 -75.7757 -75.7756 -75.7755
   -75.7753 -75.7747 -75.7746 -75.5838 -75.5663 -75.5662 -75.5237 -75.5234
   -75.5229 -75.5175 -75.5173 -75.5171 -75.5169 -75.5165 -75.5164 -75.5149
   -75.5146 -75.5141 -75.5133 -75.5133 -75.5128 -75.5090 -75.5087 -75.5081
   -75.5073 -75.5070 -75.5069 -75.5054 -75.5052 -75.5051 -75.5047 -75.5046
   -75.5046 -75.4768 -75.4767 -75.4765 -75.4762 -75.4760 -75.4759 -75.4757
   -75.4757 -75.4755 -75.4752 -75.4745 -75.4745 -75.4723 -75.4719 -75.4718
   -75.4712 -75.4711 -75.4710 -75.4706 -75.4705 -75.4704 -75.4674 -75.4670
   -75.4669 -75.4666 -75.4665 -75.4661 -75.4520 -75.4519 -75.4518 -75.4516
   -75.4515 -75.4514 -75.4427 -75.4425 -75.4424 -75.4420 -75.4419 -75.4417
   -75.4401 -75.4399 -75.4397 -75.4393 -75.4393 -75.4390 -75.4378 -75.4376
   -75.4367 -75.4351 -75.4348 -75.4339 -75.4327 -75.4325 -75.4316 -75.4315
   -75.4312 -75.4312 -75.4293 -75.4277 -75.4276 -75.4274 -75.4270 -75.4267
   -75.4266 -75.4263 -75.4262 -75.4259 -75.4259 -75.4252 -75.4250 -75.4250
   -75.4248 -75.4200 -75.4198 -75.4193 -75.4188 -75.4188 -75.4188 -75.4185
   -75.4183 -75.4182 -75.4181 -75.4176 -75.4174 -75.4025 -75.4022 -75.4021
   -75.4009 -75.4009 -75.4007 -75.4005 -75.4003 -75.4002 -75.4002 -75.4002
   -75.4000 -75.3941 -75.3933 -75.3932 -75.3929 -75.3929 -75.3927 -75.3903
   -75.3902 -75.3896 -75.3890 -75.3870 -75.3869 -75.3852 -75.3852 -75.3849
   -75.3836 -75.3831 -75.3830 -75.3806 -75.3805 -75.3805 -75.3805 -75.3801
   -75.3799 -75.3789 -75.3788 -75.3783 -75.3778 -75.3776 -75.3772 -75.3766
   -75.3763 -75.3762 -75.3746 -75.3746 -75.3745 -75.3744 -75.3734 -75.3734
   -75.3689 -75.3687 -75.3685 -75.3682 -75.3681 -75.3680 -75.3638 -75.3633
   -75.3630 -75.3628 -75.3628 -75.3622 -75.3613 -75.3610 -75.3608 -75.3606
   -75.3605 -75.3603 -75.3602 -75.3597 -75.3594 -75.3550 -75.3548 -75.3543
   -75.3530 -75.3528 -75.3525 -75.3469 -75.3468 -75.3466 -75.3464 -75.3464
   -75.3463 -75.3415 -75.3414 -75.3412 -75.3411 -75.3410 -75.3410 -75.3408
   -75.3404 -75.3402 -75.3401 -75.3399 -75.3394 -75.3394 -75.3393 -75.3391
   -75.3380 -75.3375 -75.3373 -75.3363 -75.3362 -75.3362 -75.3360 -75.3353
   -75.3351 -75.3341 -75.3336 -75.3336 -75.3335 -75.3334 -75.3333 -75.3331
   -75.3331 -75.3327 -75.3322 -75.3320 -75.3319 -75.3298 -75.3295 -75.3294
   -75.3292 -75.3288 -75.3286 -75.3284 -75.3274 -75.3271 -75.3270 -75.3265
   -75.3265 -75.3262 -75.3240 -75.3240 -50.7296 -25.1655 -25.1655 -25.0166
   -12.3680 -12.0612 -12.0602 -12.0227 -11.8909 -11.8525 -11.7993 -11.7990
   -11.7544 -11.7355 -11.7352 -11.7284 -11.6370 -11.6366 -11.6094 -11.6094
   -11.6093 -11.5945 -11.5944 -11.5925 -11.5872 -11.5872 -11.5759 -11.5386
   -11.4961 -11.4862 -11.4726 -11.4640 -11.4424 -11.4421 -11.4100 -11.4096
   -11.3983 -11.3983 -11.3958 -11.3710 -11.3708 -11.3607 -11.3353 -11.3349
   -11.3324 -11.3317 -11.3315 -11.3198 -11.3152 -11.3150 -11.3025 -11.2933
   -11.2933 -11.2909 -11.2882 -11.2880 -11.2866 -11.2865 -11.2731 -11.2686
   -11.2685 -11.2574 -11.2573 -11.2570 -11.2502 -11.2501 -11.2454 -11.2267
   -11.2267 -11.2246 -11.1897 -11.1896 -11.1805 -11.1804 -11.1803 -11.1751
   -11.1678 -11.1597 -11.1596 -11.1578 -11.1508 -11.1506 -11.1459 -11.1459
   -11.1426 -11.1361 -11.1360 -11.1344 -11.1343 -11.1276 -11.0862 -11.0685
   -11.0684 -11.0665 -11.0640 -11.0638 -11.0600 -11.0587 -11.0586   0.8546
     0.8547   0.8555   0.8716   0.8719   0.8840   0.9165   0.9165   0.9171
     0.9348   0.9350   0.9438   0.9668   0.9670   0.9894   0.9897   0.9930
     0.9955   0.9957   1.0128   1.0139   1.0140   1.0192   1.0300   1.0403
     1.0501   1.0502   1.0633   1.0634   1.0789   1.0803   1.0804   1.0961
     1.0962   1.1037   1.1116   1.1117   1.1198   1.1224   1.1225   1.1226
     1.1279   1.1307   1.1313   1.1314   1.1363   1.1427   1.1427   1.1525
     1.1525   1.1546   1.1573   1.1582   1.1589   1.1626   1.1626   1.1680
     1.1759   1.1759   1.1895   1.1895   1.1974   1.1974   1.2006   1.2021
     1.2022   1.2071   1.2072   1.2072   1.2178   1.2199   1.2200   1.2258
     1.2258   1.2298   1.2316   1.2319   1.2320   1.2378   1.2413   1.2413
     1.2460   1.2461   1.2544   1.2544   1.2652   1.2705   1.2727   1.2727
     1.2783   1.2783   1.2801   1.2833   1.2834   1.2857   1.2936   1.2937
     1.2958   1.3002   1.3003   1.3036   1.3109   1.3110   1.3110   1.3194
     1.3194   1.3196   1.3197   1.3283   1.3314   1.3359   1.3378   1.3379
     1.3380   1.3501   1.3501   1.3502   1.3589   1.3590   1.3681   1.3682
     1.3729   1.3749   1.3749   1.3767   1.3817   1.3818   1.3890   1.3927
     1.3950   1.3951   1.3974   1.4063   1.4144   1.4145   1.4218   1.4219
     1.4269   1.4269   1.4365   1.4408   1.4409   1.4419   1.4506   1.4507
     1.4558   1.4640   1.4640   1.4679   1.4679   1.4684   1.4721   1.4835
     1.4836   1.4850   1.4902   1.4952   1.4953   1.4959   1.5006   1.5006
     1.5053   1.5054   1.5060   1.5070   1.5080   1.5127   1.5127   1.5224
     1.5226   1.5226   1.5285   1.5287   1.5287   1.5347   1.5348   1.5399
     1.5403   1.5404   1.5546   1.5557   1.5557   1.5558   1.5567   1.5567
     1.5650   1.5656   1.5657   1.5670   1.5671   1.5772   1.5772   1.5808
     1.5841   1.5841   1.5848   1.5939   1.6006   1.6057   1.6079   1.6079
     1.6103   1.6103   1.6185   1.6185   1.6211   1.6339   1.6340   1.6361
     1.6362   1.6403   1.6413   1.6531   1.6581   1.6583   1.6583   1.6747
     1.6748   1.6813   1.6918   1.6918   1.6991   1.6991   1.7094   1.7177
     1.7230   1.7236   1.7237   1.7266   1.7359   1.7406   1.7407   1.7442
     1.7442   1.7504   1.7601   1.7602   1.7631   1.7631   1.7738   1.7739
     1.7765   1.7772   1.7780   1.7781   1.7850   1.7912   1.7913   1.7975
     1.7976   1.8110   1.8112   1.8123   1.8129   1.8433   1.8433   1.8461
     1.8581   1.8615   1.8616   1.8732   1.8732   1.8806   1.8807   1.8896
     1.8947   1.9044   1.9045   1.9105   1.9234   1.9234   1.9324   1.9386
     1.9437   1.9437   1.9542   1.9542   1.9548   1.9647   1.9695   1.9696
     1.9750   1.9760   1.9760   1.9929   1.9930   1.9949   2.0032   2.0033
     2.0069   2.0131   2.0132   2.0151   2.0230   2.0323   2.0368   2.0368
     2.0414   2.0414   2.0421   2.0468   2.0469   2.0549   2.0664   2.0664
     2.0775   2.0780   2.0811   2.0811   2.0960   2.0961   2.1105   2.1105
     2.1161   2.1168   2.1236   2.1291   2.1292   2.1307   2.1307   2.1402
     2.1402   2.1511   2.1552   2.1565   2.1566   2.1620   2.1621   2.1754
     2.1754   2.1758   2.1778   2.1882   2.1919   2.1922   2.1922   2.1955
     2.1955   2.2040   2.2040   2.2069   2.2075   2.2076   2.2086   2.2116
     2.2116   2.2131   2.2136   2.2160   2.2160   2.2257   2.2258   2.2259
     2.2324   2.2343   2.2344   2.2387   2.2388   2.2439   2.2461   2.2462
     2.2488   2.2519   2.2520   2.2658   2.2664   2.2665   2.2747   2.2747
     2.2786   2.2846   2.2847   2.2859   2.2888   2.2889   2.3001   2.3001
     2.3022   2.3022   2.3065   2.3080   2.3080   2.3090   2.3090   2.3156
     2.3156   2.3163   2.3198   2.3292   2.3293   2.3326   2.3380   2.3388
     2.3389   2.3476   2.3476   2.3506   2.3524   2.3524   2.3527   2.3576
     2.3577   2.3601   2.3601   2.3690   2.3691   2.3706   2.3707   2.3766
     2.3768   2.3877   2.3878   2.3897   2.3914   2.3914   2.3942   2.3985
     2.3985   2.4031   2.4049   2.4049   2.4088   2.4089   2.4104   2.4105
     2.4106   2.4126   2.4145   2.4189   2.4189   2.4220   2.4316   2.4316
     2.4359   2.4369   2.4370   2.4371   2.4407   2.4407   2.4666   2.4667
     2.4714   2.4769   2.4781   2.4782   2.4927   2.4928   2.4938   2.4998
     2.5256   2.5256   2.5402   2.5475   2.5475   2.5485   2.5764   2.5765
     2.5785   2.5897   2.5931   2.5931   2.5955   2.6191   2.6191   2.6227
     2.6228   2.6573   2.6574   2.6776   2.7185   2.7185   2.7206   2.7206
     2.7400   2.7400   2.9385   3.2505   3.2505   3.3563   3.3566   3.4146
     3.4864   3.5225   3.5314   3.5315   3.5437   3.5437   3.5558   3.5764
     3.6138   3.6139   3.6986   3.6986   3.7393   3.7591   3.7591   3.7636
     3.8399   3.8399   3.9130   3.9262   3.9427   3.9427   3.9619   3.9620
     3.9750   3.9825   3.9978   3.9979   4.0362   4.0582   4.0584   4.0597
     4.0695   4.0696   4.0964   4.1112   4.1113   4.2484   4.2484   4.2944
     4.3063   4.3312   4.3314   4.3338   4.3511   4.3586   4.3586   4.3652
     4.3876   4.3877   4.4450   4.4451   4.4609   4.4632   4.5060   4.5060
     4.5254   4.5254   4.5938   4.5997   4.5998   4.6077   4.6273   4.6274
     4.6455   4.6455   4.6498   4.6543   4.7014   4.7980   4.7981   4.9342
     4.9345   5.0379   5.0616   5.1286   5.1286   5.1403   5.1621   5.1622
     5.2151   5.2152   5.2202   5.2308   5.2556   5.2564   5.2565   5.2958
     5.2959   5.3325   5.3504   5.3504   5.3668   5.3695   5.3696   5.3819
     5.3844   5.3845   5.4008   5.4101   5.4645   5.4647   5.4710   5.5204
     5.5206   5.5607   5.5607   5.5757   5.5758   5.5760   5.5870   5.6203
     5.6288   5.6291   5.7229   5.7231   5.7479   5.8256   5.8258   5.9246
     5.9247   5.9708   6.0660   6.0662   6.0781   6.0864   6.1174   6.1175
     6.1278   6.1453   6.1465   6.1465   6.1511   6.1511   6.1678   6.1678
     6.1723   6.1758   6.1815   6.1816   6.1960   6.2042   6.2071   6.2071
     6.2273   6.2276   6.2277   6.2288   6.2308   6.2309   6.2809   6.2867
     6.2867   6.2944   6.3211   6.3212   6.3352   6.3353   6.3405   6.3828
     6.3829   6.3859   6.4044   6.4045   6.4239   6.4341   6.4374   6.4375
     6.4539   6.4539   6.4644   6.5472   6.5484   6.5485   6.5888   6.5986
     6.5987   6.6572   6.6572   6.6833   6.7483   6.7602   6.7602   6.7629
     6.7830   6.7831   6.7856   6.8243   6.8243   6.8524   6.8536   6.8540
     6.8558   6.8633   6.8845   6.8846   6.9080   6.9082   6.9108   6.9230
     6.9312   6.9329   6.9331   6.9398   6.9480   6.9480   6.9525   6.9815
     6.9816   6.9881   7.0055   7.0174   7.0174   7.0284   7.0284   7.0986
     7.1012   7.1054   7.1055   7.1084   7.1164   7.1165   7.1368   7.1394
     7.1394   7.1490   7.1490   7.2054   7.2055   7.2296   7.2655   7.2656
     7.3126   7.3342   7.3427   7.3428   7.3652   7.3653   7.3942   7.3942
     7.4021   7.4021   7.4174   7.4203   7.4217   7.4218   7.4693   7.4740
     7.4740   7.4957   7.4958   7.5065   7.5299   7.5379   7.5380   7.5437
     7.5939   7.6009   7.6012   7.6210   7.6212   7.6856   7.6859   7.7339
     7.7339   7.7508   7.7775   7.7776   7.8245   7.8322   7.8323   7.8409
     7.9846   7.9847   8.0475   8.0476   8.1506   8.2729   8.2729   8.7006
    10.1571  10.1579  11.6671  13.0798  13.2282  13.7391  13.7397  13.8751
    14.0710  14.0712  14.1234  14.2148  14.2153  14.2571  14.6811  14.8317
    14.8336  14.8601  14.8626  15.0296  17.2560  17.2562  17.2658  17.2747
    17.4883  17.6109  17.6627  17.9479  18.2693  18.2697  18.3295  18.3303
    18.3567  18.4431  18.5381  18.6224  18.7154  18.7260  18.8823  18.9125
    18.9128  18.9409  18.9413  18.9917  19.0186  19.0191  19.0407  19.0421
    19.0455  19.0488  19.0618  19.0620  19.0717  19.0718  19.1263  19.1812
    19.2493  19.2493  19.2557  19.2846  19.3098  19.3099  19.3262  19.3265
    19.3726  19.3753  19.3933  19.3961  19.4006  19.4196  19.4276  19.4489
    19.4492  19.4871  19.5063  19.5106  19.6803  19.7399  19.7402  19.7616
    19.7883  19.7970  19.7972  19.8519  19.8718  19.8719  19.9989  20.0031
    20.1061  20.2569  20.2607  20.2607  20.2693  20.2921  20.2926  20.3435
    20.3568  20.5495  20.6739  20.6864  20.6871  20.7138  20.7194  20.7202
    20.9293  20.9312  21.0973  21.0978  21.1148  21.3500  21.3587  21.4659
    21.4768  21.5915  21.5932  21.6296  21.6884  21.6982  21.7019  21.7366
    21.7802  21.7805  21.7866  21.8311  21.8313  21.8497  21.8585  21.8590
    21.8792  21.8864  21.8873  21.9168  22.0071  22.0204  22.0837  22.0843
    22.0929  22.2167  22.2186  22.2290  22.2555  22.2570  22.2595  22.2858
    22.3027  22.3161  22.3754  22.3823  22.4241  22.4280  22.4401  22.4446
    22.5072  22.5087  22.5239  22.5254  22.5256  22.5680  22.5688  22.5709
    22.6009  22.6043  22.6063  22.6209  22.6350  22.6365  22.6620  22.6683
    22.6684  22.6861  22.6866  22.6980  22.7058  22.7101  22.7102  22.7591
    22.7714  22.7720  22.7995  22.8224  22.8363  22.8670  22.8749  22.8927
    22.9132  22.9309  22.9739  22.9764  22.9878  22.9911  23.1296  23.2215
    23.2226  23.3562  23.3579  23.4056  23.4275  23.4280  23.5053  23.5111
    23.5196  23.5200  23.6162  23.6209  23.7577  23.7990  23.8018  23.8369
    23.9405  23.9929  23.9931  24.0210  24.0418  24.0421  24.0513  24.0513
    24.0624  24.0633  24.0699  24.0700  24.0909  24.0929  24.1210  24.2188
    24.2206  24.2234  24.2620  24.3060  24.3064  24.3861  24.3867  24.4126
    24.5323  24.5942  24.5952  24.6489  24.6648  24.6739  24.6841  24.6976
    24.7194  24.7201  24.7373  24.7381  24.7414  24.7649  24.7921  24.8031
    24.8060  24.8346  24.8419  24.8476  24.8741  24.8752  24.9012  24.9659
    24.9663  24.9886  25.0395  25.0464  25.0710  25.1172  25.1183  25.1193
    25.1265  25.1309  25.2091  25.2105  25.2209  25.2683  25.2683  25.2849
    25.2913  25.3440  25.3458  25.3545  25.3615  25.3761  25.3830  25.4021
    25.4050  25.4683  25.4685  25.5256  25.6869  25.7570  25.7572  25.8232
    25.8610  25.8616  25.9030  25.9164  25.9173  25.9175  25.9447  25.9476
    25.9478  25.9659  25.9677  25.9680  26.0026  26.0031  26.0950  26.0954
    26.1779  26.1782  26.2179  26.2188  26.2409  26.3314  26.3319  26.4000
    26.4524  26.4529  26.5453  26.6102  26.6112  26.6116  26.6667  26.7026
    26.7029  26.7032  26.7196  26.7319  26.7324  26.7403  26.7614  26.7615
    26.7634  26.7875  26.7876  26.7996  26.8019  26.8021  26.8284  26.8393
    26.8399  26.8658  26.8670  26.9826  26.9831  27.0235  27.0242  27.1066
    27.1219  27.1626  27.1630  27.1659  27.1889  27.1892  27.1940  27.2860
    27.2869  27.3413  27.3438  27.3609  27.3957  27.4509  27.4513  27.4669
    27.4884  27.4887  27.4932  27.6021  27.6027  27.6308  27.6365  27.6377
    27.6397  27.7065  27.7075  27.7357  27.7547  27.7587  27.8465  27.8468
    27.8778  27.9385  27.9388  28.0745  28.1176  28.1230  28.1515  28.4389
    28.4394  28.4394  28.4637  28.4795  28.4951  28.5250  28.5253  28.5299
    28.5991  28.5995  28.6106  28.6108  28.6210  28.6306  28.6535  28.6736
    28.6739  28.6865  28.6869  28.7190  28.7487  28.8216  28.8217  28.8241
    28.8378  28.8381  28.9437  28.9795  28.9795  29.0084  29.0132  29.0340
    29.0351  29.0482  29.0542  29.0542  29.0653  29.0656  29.1019  29.1264
    29.1266  29.1555  29.1560  29.1703  29.2405  29.2408  29.2666  29.5578
    29.6787  29.7544  29.7624  29.7690  30.1396  30.4273  30.4836  30.4922
    30.4942  30.5738  30.5870  30.5876  30.6595  30.6598  30.6954  30.6962
    30.7326  30.7605  30.7740  30.7744  30.7894  30.7918  30.7919  30.8040
    30.8043  30.8050  30.8222  30.8436  30.8439  30.9147  30.9275  30.9285
    30.9499  30.9823  30.9824  30.9960  30.9967  31.0038  31.0052  31.0346
    31.0351  31.0540  31.0548  31.1043  31.1053  31.1554  31.4370  31.4419
    31.4462  31.4534  31.5608  31.8079  31.8083  31.8969  31.9258  31.9261
    31.9479  31.9479  32.0564  32.0853  32.0863  32.0887  32.1375  32.1398
    32.1404  32.1523  32.1668  32.1670  32.1794  32.1810  32.1925  32.1926
    32.1966  32.2037  32.2981  32.2986  32.3450  32.4575  32.4606  32.4977
    32.4994  32.6307  32.7262  32.7264  32.9027  32.9833  32.9838  32.9953
    33.0317  33.0320  33.0339  33.1747  33.1959  33.1961  33.3003  33.3020
    33.3258  33.3268  33.5197  33.5200  33.6640  33.6889  33.7526  33.7534
    33.7881  33.8098  33.8102  33.8242  33.8243  33.8383  33.8557  33.8599
    33.8603  33.9503  33.9618  33.9630  34.0428  34.0428  34.0548  34.2358
    34.3204  34.3229  34.3229  34.3602  34.3604  34.4095  34.4136  34.5368
    34.6379  34.6860  34.6881  34.7066  34.7566  34.7787  34.7818  34.7924
    34.8121  34.8129  34.8385  34.8477  34.9011  34.9021  34.9099  34.9134
    34.9637  35.0007  35.0013  35.0210  35.0377  35.0380  35.1111  35.1228
    35.1235  35.1798  35.1802  35.1937  35.1983  35.2015  35.2361  35.2386
    35.2392  35.2560  35.2580  35.2837  35.2963  35.3251  35.3308  35.3459
    35.3494  35.3651  35.3937  35.3949  35.4201  35.4688  35.4694  35.4920
    35.4957  35.5092  35.5124  35.5127  35.5233  35.5612  35.5638  35.5894
    35.6258  35.6272  35.6600  35.6601  35.7340  35.7352  35.7732  35.7739
    35.7948  35.7957  35.8194  35.8452  35.8454  35.8462  35.9271  35.9275
    36.0581  36.1297  36.1300  36.1407  36.2832  36.3373  36.3503  36.3506
    36.3728  36.3735  36.3901  36.4621  36.4763  36.4827  36.4833  36.4959
    36.5217  36.5295  36.5298  36.5388  36.5396  36.5550  36.8188  36.8188
    36.8284  36.8918  36.9326  36.9786  36.9789  37.0210  37.0214  37.0541
    37.0559  37.0563  37.0781  37.0783  37.0989  37.0996  37.1030  37.1200
    37.1265  37.1319  37.1482  37.1485  37.1524  37.1544  37.1626  37.1691
    37.1866  37.1868  37.1876  37.1901  37.2035  37.2116  37.2146  37.2421
    37.2425  37.2473  37.2479  37.2558  37.2714  37.2717  37.3232  37.3572
    37.3575  37.4489  37.4497  37.4497  37.5105  37.5112  37.6094  37.6278
    37.7053  37.7110  37.7123  37.7201  37.7366  37.7624  37.7632  37.7693
    37.7874  37.7904  37.7924  37.7980  37.8008  37.8150  37.8380  37.8561
    37.8575  37.8608  37.8927  37.8932  37.9219  37.9252  37.9317  37.9702
    37.9719  38.0071  38.0071  38.0227  38.0814  38.1152  38.1156  38.2083
    38.2087  38.2122  38.2629  38.2630  38.2745  38.2751  38.2791  38.3006
    38.3211  38.3213  38.3773  38.3792  38.3994  38.4131  38.4132  38.4413
    38.4421  38.4578  38.4685  38.5056  38.5063  38.5542  38.5579  38.5582
    38.5872  38.5909  38.5918  38.6430  38.6438  38.6955  38.7235  38.7249
    38.7491  38.7496  38.7542  38.7943  38.8220  38.8492  38.8531  38.8537
    38.8634  38.8638  38.8846  38.9482  39.0414  39.0422  39.0948  39.0976
    39.0988  39.2345  39.2946  39.2949  39.3612  39.3847  39.3854  39.4052
    39.4133  39.4147  39.4656  39.4875  39.4879  39.5263  39.5267  39.5756
    39.7017  39.7028  39.7374  39.7379  39.7461  39.7724  39.7729  39.7761
    39.7791  39.7797  39.8185  39.8556  39.8561  39.8637  39.8639  39.9254
    39.9314  39.9316  39.9568  39.9651  39.9939  39.9943  40.0454  40.0458
    40.0464  40.0576  40.0838  40.0841  40.1291  40.1422  40.1586  40.1605
    40.2401  40.2750  40.2760  40.3889  40.4378  40.4405  40.4410  40.5090
    40.5271  40.5275  40.5467  40.5469  40.5836  40.5839  40.5894  40.5949
    40.6321  40.6612  40.6625  40.6649  40.6653  40.6686  40.6715  40.6973
    40.6980  40.7472  40.7848  40.7853  40.7907  40.8159  40.8166  40.8226
    40.9594  40.9605  40.9625  41.0156  41.0180  41.0527  41.0544  41.0556
    41.0582  41.0953  41.0966  41.1130  41.1287  41.1342  41.1405  41.1451
    41.1453  41.1575  41.1593  41.1666  41.1831  41.1923  41.1932  41.1943
    41.1997  41.2126  41.2146  41.2408  41.2517  41.2825  41.2841  41.2843
    41.3397  41.3459  41.3501  41.4012  41.4032  41.4054  41.4982  41.5434
    41.5460  41.5524  41.5995  41.6250  41.6388  41.6390  41.6719  41.6909
    41.7223  41.7340  41.7457  41.7518  41.7587  41.7815  41.7856  41.8269
    41.8493  41.8516  41.8537  41.8852  41.8865  41.9610  41.9672  41.9687
    42.0117  42.0327  42.0370  42.0391  42.0489  42.1291  42.1322  42.1407
    42.1742  42.1750  42.2218  42.2236  42.2242  42.2374  42.2440  42.2493
    42.3037  42.3040  42.3092  42.3120  42.3496  42.3497  42.3526  42.5011
    42.5021  42.5296  42.5304  42.5486  42.5559  42.6548  42.6567  42.6828
    42.7054  42.7231  42.7236  42.7680  42.7691  42.8526  42.8607  42.8690
    42.8699  42.9110  42.9112  42.9119  42.9247  42.9332  42.9334  42.9354
    42.9451  42.9456  42.9836  42.9839  42.9844  43.0108  43.0433  43.0438
    43.1083  43.1393  43.1400  43.1668  43.2342  43.2527  43.2529  43.2976
    43.3423  43.3428  43.4307  43.4621  43.4627  43.4812  43.5144  43.5145
    43.5825  43.5829  43.6211  43.6215  43.6671  43.6870  43.6925  43.6928
    43.6950  43.7017  43.7197  43.7199  43.7310  43.7314  43.7457  43.7941
    43.7951  43.7997  43.9145  43.9401  43.9421  43.9505  43.9653  43.9742
    44.0059  44.0090  44.0261  44.0283  44.0440  44.0796  44.1562  44.1618
    44.2532  44.3415  44.3417  44.3521  44.3657  44.4262  44.4265  44.4924
    44.5343  44.5351  44.5533  44.5598  44.5773  44.5781  44.5782  44.5937
    44.5948  44.6279  44.6316  44.6321  44.6452  44.6455  44.6586  44.6593
    44.6602  44.6714  44.6746  44.7304  44.7308  44.7495  44.7925  44.7993
    44.8031  44.8392  44.8395  44.8400  44.8541  44.8562  44.8763  44.8770
    44.8914  44.8917  44.9729  44.9732  45.0162  45.1142  45.1426  45.1436
    45.1645  45.2464  45.2519  45.2531  45.2786  45.3334  45.3424  45.3428
    45.3742  45.3743  45.3989  45.4495  45.4505  45.4578  45.4582  45.4611
    45.4951  45.4956  45.5109  45.5110  45.5438  45.5438  45.5647  45.5703
    45.6008  45.6013  45.6096  45.6232  45.6248  45.6252  45.6366  45.6367
    45.6577  45.6577  45.7078  45.7585  45.7588  45.7932  45.8122  45.8156
    45.8160  45.8315  45.8318  45.8442  45.8839  45.8840  45.9087  45.9091
    45.9235  45.9248  45.9577  45.9577  45.9617  45.9797  45.9800  45.9888
    45.9989  45.9990  46.0008  46.0176  46.0177  46.0887  46.0889  46.0989
    46.2093  46.2102  46.2962  46.3084  46.3091  46.3438  46.3633  46.3642
    46.4380  46.4389  46.4637  46.4876  46.5037  46.5067  46.5070  46.5083
    46.5306  46.5307  46.5386  46.5554  46.5565  46.5705  46.5719  46.6011
    46.6040  46.6358  46.6885  46.7138  46.7223  46.7720  46.7734  46.7767
    46.9136  46.9138  46.9557  46.9807  46.9877  46.9879  47.0547  47.0560
    47.0571  47.0679  47.0680  47.0834  47.0837  47.1036  47.1264  47.1270
    47.1295  47.1345  47.1559  47.1966  47.1969  47.2221  47.2337  47.3105
    47.3106  47.3623  47.3643  47.4252  47.5021  47.5030  47.6004  47.6470
    47.6477  47.6842  47.7280  47.7285  47.7828  47.8148  47.8237  47.8445
    47.8452  47.8872  47.9154  47.9156  47.9402  47.9726  47.9730  48.0006
    48.0132  48.0482  48.0490  48.1892  48.4989  48.4992  48.5004  48.5729
    48.5736  48.6047  48.6431  48.6845  48.6856  48.7044  48.7178  48.7181
    48.7649  48.8044  48.8052  48.8134  48.8135  48.8260  48.8330  48.8332
    48.8844  48.8999  48.9143  48.9266  48.9267  48.9800  48.9812  48.9854
    49.0133  49.0139  49.0256  49.0337  49.0341  49.0438  49.0461  49.1234
    49.1412  49.1418  49.2127  49.2527  49.2533  49.2811  49.3245  49.3375
    49.3376  49.3978  49.3980  49.4044  49.4044  49.4113  49.4223  49.4512
    49.4514  49.4606  49.4662  49.4783  49.4784  49.4847  49.4850  49.5078
    49.5249  49.5251  49.5375  49.5377  49.5554  49.5720  49.5948  49.5956
    49.6349  49.6351  49.6623  49.6623  49.6685  49.6982  49.7034  49.7303
    49.7306  49.7473  49.7475  49.7812  49.7995  49.8001  49.8026  49.8562
    49.8629  49.8637  49.8643  49.8938  49.8939  49.9074  49.9618  49.9623
    49.9944  49.9947  50.0084  50.0218  50.0220  50.0495  50.0923  50.0994
    50.1073  50.1103  50.1106  50.1578  50.1582  50.2040  50.2042  50.2558
    50.2576  50.2758  50.3267  50.3497  50.3548  50.3561  50.4381  50.4384
    50.4543  50.5324  50.5326  50.5869  50.5873  50.6098  50.6667  50.6797
    50.6801  50.7031  50.7037  50.7527  50.7528  50.7733  50.7832  50.7841
    50.8021  50.8024  50.8085  50.8318  50.8412  50.8599  50.8768  50.8768
    50.8884  50.8930  50.9017  50.9025  50.9298  50.9298  50.9565  50.9568
    50.9763  50.9963  51.0050  51.0260  51.0267  51.0671  51.0821  51.0824
    51.1068  51.1186  51.1188  51.1462  51.1472  51.1669  51.1687  51.1955
    51.1968  51.1971  51.2580  51.2684  51.2729  51.2967  51.2971  51.3285
    51.3294  51.3346  51.3422  51.3441  51.3456  51.3551  51.3954  51.4017
    51.4022  51.4807  51.4812  51.4894  51.5226  51.5233  51.6051  51.6162
    51.6459  51.6514  51.6526  51.7836  51.7838  51.7996  51.8078  51.8329
    51.8333  51.8892  51.8897  51.8904  51.9226  51.9384  51.9385  51.9530
    51.9531  51.9708  51.9738  51.9908  51.9917  52.0021  52.0025  52.0398
    52.0513  52.0521  52.0647  52.0650  52.0865  52.0866  52.0973  52.1147
    52.1359  52.1859  52.1953  52.1955  52.2055  52.2191  52.2195  52.2219
    52.2486  52.2491  52.2662  52.2669  52.3001  52.3055  52.3175  52.3223
    52.3224  52.3555  52.3555  52.4270  52.4535  52.4536  52.4608  52.6912
    52.6915  52.7672  52.8122  52.8123  52.8610  52.8611  52.9213  52.9683
    52.9685  52.9909  53.0043  53.0055  53.0434  53.0537  53.0538  53.0888
    53.1147  53.1148  53.1508  53.1560  53.1572  53.1576  53.2920  53.2925
    53.3801  53.3802  53.3940  53.4062  53.4088  53.4092  53.4345  53.4374
    53.4375  53.5053  53.5286  53.5739  53.5746  53.5899  53.5901  53.6238
    53.6760  53.6771  53.7001  53.9620  53.9635  54.0354  54.0357  54.0725
    54.0908  54.0918  54.1301  54.1806  54.1902  54.1902  54.2112  54.2116
    54.2276  54.2543  54.2546  54.2550  54.2551  54.2771  54.2772  54.3106
    54.3219  54.3222  54.3518  54.3522  54.3710  54.4463  54.5054  54.5118
    54.5120  54.5216  54.5218  54.5973  54.6133  54.6133  54.6345  54.6348
    54.6602  54.6779  54.6796  54.6797  54.7048  54.7088  54.7309  54.7310
    54.7704  54.8027  54.8029  54.8137  54.8444  54.8446  54.8772  54.8772
    54.9014  54.9085  54.9139  54.9141  54.9531  54.9562  54.9585  54.9587
    54.9695  54.9695  54.9893  55.0015  55.0016  55.0221  55.0411  55.0415
    55.0722  55.1047  55.1051  55.1534  55.1535  55.1606  55.1739  55.1740
    55.1825  55.1952  55.2000  55.2003  55.2332  55.2335  55.2518  55.2752
    55.2752  55.2858  55.2860  55.3030  55.3382  55.3387  55.3520  55.3570
    55.3573  55.3807  55.3808  55.4718  55.4732  55.4735  55.4858  55.4861
    55.5184  55.5431  55.5531  55.6212  55.6214  55.6954  55.6956  55.7167
    55.7170  55.7268  55.7719  55.7720  55.7877  55.8256  55.8258  55.8280
    55.8762  55.9073  55.9074  55.9364  55.9486  55.9487  56.0142  56.0302
    56.0451  56.0451  56.1123  56.1124  56.1587  56.2167  56.2246  56.2247
    56.3000  56.3092  56.3094  56.3099  56.3580  56.3584  56.4025  56.4029
    56.4381  56.4698  56.4700  56.5170  56.5172  56.5358  56.5556  56.5818
    56.5818  56.5973  56.6079  56.6082  56.6104  56.6353  56.6813  56.6819
    56.6963  56.6970  56.8454  56.8458  56.8725  56.9543  56.9724  56.9728
    57.0212  57.0219  57.0222  57.0741  57.0742  57.0808  57.0809  57.0878
    57.1014  57.1145  57.1146  57.1479  57.1541  57.1544  57.1635  57.1808
    57.1901  57.1905  57.1916  57.1919  57.2347  57.2354  57.2576  57.2594
    57.2601  57.2750  57.2754  57.2802  57.2933  57.2940  57.2998  57.3163
    57.3172  57.3185  57.3220  57.3224  57.3244  57.3267  57.3350  57.3407
    57.3437  57.3454  57.3536  57.3536  57.3753  57.3758  57.3972  57.3974
    57.3974  57.4236  57.4473  57.4480  57.4523  57.5308  57.5902  57.5904
    57.6611  57.6614  57.7247  57.7508  57.7836  57.7843  57.7967  57.7968
    57.8315  57.8318  57.8468  57.8474  57.8551  57.9109  57.9115  57.9408
    57.9408  57.9511  58.0110  58.0332  58.0334  58.1174  58.1192  58.1198

     occupation numbers 
     1.0000   1.0000   1.0000   1.0000   1.0000   1.0000   1.0000   1.0000
     1.0000   1.0000   1.0000   1.0000   1.0000   1.0000   1.0000   1.0000
     1.0000   1.0000   1.0000   1.0000   1.0000   1.0000   1.0000   1.0000
     1.0000   1.0000   1.0000   1.0000   1.0000   1.0000   1.0000   1.0000
     1.0000   1.0000   1.0000   1.0000   1.0000   1.0000   1.0000   1.0000
     1.0000   1.0000   1.0000   1.0000   1.0000   1.0000   1.0000   1.0000
     1.0000   1.0000   1.0000   1.0000   1.0000   1.0000   1.0000   1.0000
     1.0000   1.0000   1.0000   1.0000   1.0000   1.0000   1.0000   1.0000
     1.0000   1.0000   1.0000   1.0000   1.0000   1.0000   1.0000   1.0000
     1.0000   1.0000   1.0000   1.0000   1.0000   1.0000   1.0000   1.0000
     1.0000   1.0000   1.0000   1.0000   1.0000   1.0000   1.0000   1.0000
     1.0000   1.0000   1.0000   1.0000   1.0000   1.0000   1.0000   1.0000
     1.0000   1.0000   1.0000   1.0000   1.0000   1.0000   1.0000   1.0000
     1.0000   1.0000   1.0000   1.0000   1.0000   1.0000   1.0000   1.0000
     1.0000   1.0000   1.0000   1.0000   1.0000   1.0000   1.0000   1.0000
     1.0000   1.0000   1.0000   1.0000   1.0000   1.0000   1.0000   1.0000
     1.0000   1.0000   1.0000   1.0000   1.0000   1.0000   1.0000   1.0000
     1.0000   1.0000   1.0000   1.0000   1.0000   1.0000   1.0000   1.0000
     1.0000   1.0000   1.0000   1.0000   1.0000   1.0000   1.0000   1.0000
     1.0000   1.0000   1.0000   1.0000   1.0000   1.0000   1.0000   1.0000
     1.0000   1.0000   1.0000   1.0000   1.0000   1.0000   1.0000   1.0000
     1.0000   1.0000   1.0000   1.0000   1.0000   1.0000   1.0000   1.0000
     1.0000   1.0000   1.0000   1.0000   1.0000   1.0000   1.0000   1.0000
     1.0000   1.0000   1.0000   1.0000   1.0000   1.0000   1.0000   1.0000
     1.0000   1.0000   1.0000   1.0000   1.0000   1.0000   1.0000   1.0000
     1.0000   1.0000   1.0000   1.0000   1.0000   1.0000   1.0000   1.0000
     1.0000   1.0000   1.0000   1.0000   1.0000   1.0000   1.0000   1.0000
     1.0000   1.0000   1.0000   1.0000   1.0000   1.0000   1.0000   1.0000
     1.0000   1.0000   1.0000   1.0000   1.0000   1.0000   1.0000   1.0000
     1.0000   1.0000   1.0000   1.0000   1.0000   1.0000   1.0000   1.0000
     1.0000   1.0000   1.0000   1.0000   1.0000   1.0000   1.0000   1.0000
     1.0000   1.0000   1.0000   1.0000   1.0000   1.0000   1.0000   1.0000
     1.0000   1.0000   1.0000   1.0000   1.0000   1.0000   1.0000   1.0000
     1.0000   1.0000   1.0000   1.0000   1.0000   1.0000   1.0000   1.0000
     1.0000   1.0000   1.0000   1.0000   1.0000   1.0000   1.0000   1.0000
     1.0000   1.0000   1.0000   1.0000   1.0000   1.0000   1.0000   1.0000
     1.0000   1.0000   1.0000   1.0000   1.0000   1.0000   1.0000   1.0000
     1.0000   1.0000   1.0000   1.0000   1.0000   1.0000   1.0000   1.0000
     1.0000   1.0000   1.0000   1.0000   1.0000   1.0000   1.0000   1.0000
     1.0000   1.0000   1.0000   1.0000   1.0000   1.0000   1.0000   1.0000
     1.0000   1.0000   1.0000   1.0000   1.0000   1.0000   1.0000   1.0000
     1.0000   1.0000   1.0000   1.0000   1.0000   1.0000   1.0000   1.0000
     1.0000   1.0000   1.0000   1.0000   1.0000   1.0000   1.0000   1.0000
     1.0000   1.0000   1.0000   1.0000   1.0000   1.0000   1.0000   1.0000
     1.0000   1.0000   1.0000   1.0000   1.0000   1.0000   1.0000   1.0000
     1.0000   1.0000   1.0000   1.0000   1.0000   1.0000   1.0000   1.0000
     1.0000   1.0000   1.0000   1.0000   1.0000   1.0000   1.0000   1.0000
     1.0000   1.0000   1.0000   1.0000   1.0000   1.0000   1.0000   1.0000
     1.0000   1.0000   1.0000   1.0000   1.0000   1.0000   1.0000   1.0000
     1.0000   1.0000   1.0000   1.0000   1.0000   1.0000   1.0000   1.0000
     1.0000   1.0000   1.0000   1.0000   1.0000   1.0000   1.0000   1.0000
     1.0000   1.0000   1.0000   1.0000   1.0000   1.0000   1.0000   1.0000
     1.0000   1.0000   1.0000   1.0000   1.0000   1.0000   1.0000   1.0000
     1.0000   1.0000   1.0000   1.0000   1.0000   1.0000   1.0000   1.0000
     1.0000   1.0000   1.0000   1.0000   1.0000   1.0000   1.0000   1.0000
     1.0000   1.0000   1.0000   1.0000   1.0000   1.0000   1.0000   1.0000
     1.0000   1.0000   1.0000   1.0000   1.0000   1.0000   1.0000   1.0000
     1.0000   1.0000   1.0000   1.0000   1.0000   1.0000   1.0000   1.0000
     1.0000   1.0000   1.0000   1.0000   1.0000   1.0000   1.0000   1.0000
     1.0000   1.0000   1.0000   1.0000   1.0000   1.0000   1.0000   1.0000
     1.0000   1.0000   1.0000   1.0000   1.0000   1.0000   1.0000   1.0000
     1.0000   1.0000   1.0000   1.0000   1.0000   1.0000   1.0000   1.0000
     1.0000   1.0000   1.0000   1.0000   1.0000   1.0000   1.0000   1.0000
     1.0000   1.0000   1.0000   1.0000   1.0000   1.0000   1.0000   1.0000
     1.0000   1.0000   1.0000   1.0000   1.0000   1.0000   1.0000   1.0000
     1.0000   1.0000   1.0000   1.0000   1.0000   1.0000   1.0000   1.0000
     1.0000   1.0000   1.0000   1.0000   1.0000   1.0000   1.0000   1.0000
     1.0000   1.0000   1.0000   1.0000   1.0000   1.0000   1.0000   1.0000
     1.0000   1.0000   1.0000   1.0000   1.0000   1.0000   1.0000   1.0000
     1.0000   1.0000   1.0000   1.0000   1.0000   1.0000   1.0000   1.0000
     1.0000   1.0000   1.0000   1.0000   1.0000   1.0000   1.0000   1.0000
     1.0000   1.0000   1.0000   1.0000   1.0000   1.0000   1.0000   1.0000
     1.0000   1.0000   1.0000   1.0000   1.0000   1.0000   1.0000   1.0000
     1.0000   1.0000   1.0000   1.0000   1.0000   1.0000   1.0000   1.0000
     1.0000   1.0000   1.0000   1.0000   1.0000   1.0000   1.0000   1.0000
     1.0000   1.0000   1.0000   1.0000   1.0000   1.0000   1.0000   1.0000
     1.0000   1.0000   1.0000   1.0000   1.0000   1.0000   1.0000   1.0000
     1.0000   1.0000   1.0000   1.0000   1.0000   1.0000   1.0000   1.0000
     1.0000   1.0000   1.0000   1.0000   1.0000   1.0000   1.0000   1.0000
     1.0000   1.0000   1.0000   1.0000   1.0000   1.0000   1.0000   1.0000
     1.0000   1.0000   1.0000   1.0000   1.0000   1.0000   1.0000   1.0000
     1.0000   1.0000   1.0000   1.0000   1.0000   1.0000   1.0000   1.0000
     1.0000   1.0000   1.0000   1.0000   1.0000   1.0000   1.0000   1.0000
     1.0000   1.0000   1.0000   1.0000   1.0000   1.0000   1.0000   1.0000
     1.0000   1.0000   1.0000   1.0000   1.0000   1.0000   1.0000   1.0000
     1.0000   1.0000   1.0000   1.0000   1.0000   1.0000   1.0000   1.0000
     1.0000   1.0000   1.0000   1.0000   1.0000   1.0000   1.0000   1.0000
     1.0000   1.0000   1.0000   1.0000   1.0000   1.0000   1.0000   1.0000
     1.0000   1.0000   1.0000   1.0000   1.0000   1.0000   1.0000   1.0000
     1.0000   1.0000   1.0000   1.0000   1.0000   1.0000   1.0000   1.0000
     1.0000   1.0000   1.0000   1.0000   1.0000   1.0000   1.0000   1.0000
     1.0000   1.0000   1.0000   1.0000   1.0000   1.0000   1.0000   1.0000
     1.0000   1.0000   1.0000   1.0000   1.0000   1.0000   1.0000   1.0000
     1.0000   1.0000   1.0000   1.0000   1.0000   1.0000   1.0000   1.0000
     1.0000   1.0000   1.0000   1.0000   1.0000   1.0000   1.0000   1.0000
     1.0000   1.0000   1.0000   1.0000   1.0000   1.0000   1.0000   1.0000
     1.0000   1.0000   1.0000   1.0000   1.0000   1.0000   1.0000   1.0000
     1.0000   1.0000   1.0000   1.0000   1.0000   1.0000   1.0000   1.0000
     1.0000   1.0000   1.0000   1.0000   1.0000   1.0000   1.0000   1.0000
     1.0000   1.0000   1.0000   1.0000   1.0000   1.0000   1.0000   1.0000
     1.0000   1.0000   1.0000   1.0000   1.0000   1.0000   1.0000   1.0000
     1.0000   1.0000   1.0000   1.0000   1.0000   1.0000   1.0000   1.0000
     1.0000   1.0000   1.0000   1.0000   1.0000   1.0000   1.0000   1.0000
     1.0000   1.0000   1.0000   1.0000   1.0000   1.0000   1.0000   1.0000
     1.0000   1.0000   1.0000   1.0000   1.0000   1.0000   1.0000   1.0000
     1.0000   1.0000   1.0000   1.0000   1.0000   1.0000   1.0000   1.0000
     1.0000   1.0000   1.0000   1.0000   1.0000   1.0000   1.0000   1.0000
     1.0000   1.0000   1.0000   1.0000   1.0000   1.0000   1.0000   1.0000
     1.0000   1.0000   1.0000   1.0000   1.0000   1.0000   1.0000   1.0000
     1.0000   1.0000   1.0000   1.0000   1.0000   1.0000   1.0000   1.0000
     1.0000   1.0000   1.0000   1.0000   1.0000   1.0000   1.0000   1.0000
     1.0000   1.0000   1.0000   1.0000   1.0000   1.0000   1.0000   1.0000
     1.0000   1.0000   1.0000   1.0000   1.0000   1.0000   1.0000   1.0000
     1.0000   1.0000   1.0000   1.0000   1.0000   1.0000   1.0000   1.0000
     1.0000   1.0000   1.0000   1.0000   1.0000   1.0000   1.0000   1.0000
     1.0000   1.0000   1.0000   1.0000   1.0000   1.0000   1.0000   1.0000
     1.0000   1.0000   1.0000   1.0000   1.0000   1.0000   1.0000   1.0000
     1.0000   1.0000   1.0000   1.0000   1.0000   1.0000   1.0000   1.0000
     1.0000   1.0000   1.0000   1.0000   1.0000   1.0000   1.0000   1.0000
     1.0000   1.0000   1.0000   1.0000   1.0000   1.0000   1.0000   1.0000
     1.0000   1.0000   1.0000   1.0000   1.0000   1.0000   1.0000   1.0000
     1.0000   1.0000   1.0000   1.0000   1.0000   1.0000   1.0000   1.0000
     1.0000   1.0000   1.0000   1.0000   1.0000   1.0000   1.0000   1.0000
     1.0000   1.0000   1.0000   1.0000   1.0000   1.0000   1.0000   1.0000
     1.0000   1.0000   1.0000   1.0000   1.0000   1.0000   1.0000   1.0000
     1.0000   1.0000   1.0000   1.0000   1.0000   1.0000   1.0000   1.0000
     1.0000   1.0000   1.0000   1.0000   1.0000   1.0000   1.0000   1.0000
     1.0000   1.0000   1.0000   1.0000   1.0000   1.0000   1.0000   1.0000
     1.0000   1.0000   1.0000   1.0000   1.0000   1.0000   1.0000   1.0000
     1.0000   1.0000   1.0000   1.0000   1.0000   1.0000   1.0000   1.0000
     1.0000   1.0000   1.0000   1.0000   1.0000   1.0000   1.0000   1.0000
     1.0000   1.0000   1.0000   1.0000   1.0000   1.0000   1.0000   1.0000
     1.0000   1.0000   1.0000   1.0000   1.0000   1.0000   1.0000   1.0000
     1.0000   1.0000   1.0000   1.0000   1.0000   1.0000   1.0000   1.0000
     1.0000   1.0000   1.0000   1.0000   1.0000   1.0000   1.0000   1.0000
     1.0000   1.0000   1.0000   1.0000   1.0000   1.0000   1.0000   1.0000
     1.0000   1.0000   1.0000   1.0000   1.0000   1.0000   1.0000   1.0000
     1.0000   1.0000   1.0000   1.0000   1.0000   1.0000   1.0000   1.0000
     1.0000   1.0000   1.0000   1.0000   1.0000   1.0000   1.0000   1.0000
     1.0000   1.0000   1.0000   1.0000   1.0000   1.0000   1.0000   1.0000
     1.0000   1.0000   1.0000   1.0000   1.0000   1.0000   1.0000   1.0000
     1.0000   1.0000   1.0000   1.0000   1.0000   1.0000   1.0000   1.0000
     1.0000   1.0000   1.0000   1.0000   1.0000   1.0000   1.0000   1.0000
     1.0000   1.0000   1.0000   1.0000   1.0000   1.0000   1.0000   1.0000
     1.0000   1.0000   1.0000   1.0000   1.0000   1.0000   1.0000   1.0000
     1.0000   1.0000   1.0000   1.0000   1.0000   1.0000   1.0000   1.0000
     1.0000   1.0000   1.0000   1.0000   1.0000   1.0000   1.0000   1.0000
     1.0000   1.0000   1.0000   1.0000   1.0000   1.0000   1.0000   1.0000
     1.0000   1.0000   1.0000   1.0000   1.0000   1.0000   1.0000   1.0000
     1.0000   1.0000   1.0000   1.0000   1.0000   1.0000   1.0000   1.0000
     1.0000   1.0000   1.0000   1.0000   1.0000   1.0000   1.0000   1.0000
     1.0000   1.0000   1.0000   1.0000   1.0000   1.0000   1.0000   1.0000
     1.0000   1.0000   1.0000   1.0000   1.0000   1.0000   1.0000   1.0000
     1.0000   1.0000   1.0000   1.0000   1.0000   1.0000   1.0000   1.0000
     1.0000   1.0000   1.0000   1.0000   1.0000   1.0000   1.0000   1.0000
     1.0000   1.0000   0.0000   0.0000   0.0000   0.0000   0.0000   0.0000
     0.0000   0.0000   0.0000   0.0000   0.0000   0.0000   0.0000   0.0000
     0.0000   0.0000   0.0000   0.0000   0.0000   0.0000   0.0000   0.0000
     0.0000   0.0000   0.0000   0.0000   0.0000   0.0000   0.0000   0.0000
     0.0000   0.0000   0.0000   0.0000   0.0000   0.0000   0.0000   0.0000
     0.0000   0.0000   0.0000   0.0000   0.0000   0.0000   0.0000   0.0000
     0.0000   0.0000   0.0000   0.0000   0.0000   0.0000   0.0000   0.0000
     0.0000   0.0000   0.0000   0.0000   0.0000   0.0000   0.0000   0.0000
     0.0000   0.0000   0.0000   0.0000   0.0000   0.0000   0.0000   0.0000
     0.0000   0.0000   0.0000   0.0000   0.0000   0.0000   0.0000   0.0000
     0.0000   0.0000   0.0000   0.0000   0.0000   0.0000   0.0000   0.0000
     0.0000   0.0000   0.0000   0.0000   0.0000   0.0000   0.0000   0.0000
     0.0000   0.0000   0.0000   0.0000   0.0000   0.0000   0.0000   0.0000
     0.0000   0.0000   0.0000   0.0000   0.0000   0.0000   0.0000   0.0000
     0.0000   0.0000   0.0000   0.0000   0.0000   0.0000   0.0000   0.0000
     0.0000   0.0000   0.0000   0.0000   0.0000   0.0000   0.0000   0.0000
     0.0000   0.0000   0.0000   0.0000   0.0000   0.0000   0.0000   0.0000
     0.0000   0.0000   0.0000   0.0000   0.0000   0.0000   0.0000   0.0000
     0.0000   0.0000   0.0000   0.0000   0.0000   0.0000   0.0000   0.0000
     0.0000   0.0000   0.0000   0.0000   0.0000   0.0000   0.0000   0.0000
     0.0000   0.0000   0.0000   0.0000   0.0000   0.0000   0.0000   0.0000
     0.0000   0.0000   0.0000   0.0000   0.0000   0.0000   0.0000   0.0000
     0.0000   0.0000   0.0000   0.0000   0.0000   0.0000   0.0000   0.0000
     0.0000   0.0000   0.0000   0.0000   0.0000   0.0000   0.0000   0.0000
     0.0000   0.0000   0.0000   0.0000   0.0000   0.0000   0.0000   0.0000
[...]
     0.0000   0.0000   0.0000   0.0000   0.0000   0.0000   0.0000   0.0000
     0.0000   0.0000   0.0000   0.0000   0.0000   0.0000   0.0000   0.0000
     0.0000   0.0000   0.0000   0.0000   0.0000   0.0000   0.0000   0.0000
     0.0000   0.0000   0.0000   0.0000   0.0000   0.0000   0.0000   0.0000
     0.0000   0.0000   0.0000   0.0000   0.0000   0.0000   0.0000   0.0000
     0.0000   0.0000   0.0000   0.0000   0.0000   0.0000   0.0000   0.0000
     0.0000   0.0000   0.0000   0.0000   0.0000   0.0000   0.0000   0.0000
     0.0000   0.0000   0.0000   0.0000   0.0000   0.0000   0.0000   0.0000
     0.0000   0.0000   0.0000   0.0000   0.0000   0.0000   0.0000   0.0000
     0.0000   0.0000   0.0000   0.0000   0.0000   0.0000   0.0000   0.0000
     0.0000   0.0000   0.0000   0.0000   0.0000   0.0000   0.0000   0.0000
     0.0000   0.0000   0.0000   0.0000   0.0000   0.0000   0.0000   0.0000
     0.0000   0.0000   0.0000   0.0000   0.0000   0.0000   0.0000   0.0000
     0.0000   0.0000   0.0000   0.0000   0.0000   0.0000   0.0000   0.0000
     0.0000   0.0000   0.0000   0.0000   0.0000   0.0000   0.0000   0.0000
     0.0000   0.0000   0.0000   0.0000   0.0000   0.0000   0.0000   0.0000
     0.0000   0.0000   0.0000   0.0000   0.0000   0.0000   0.0000   0.0000
     0.0000   0.0000   0.0000   0.0000   0.0000   0.0000   0.0000   0.0000
     0.0000   0.0000   0.0000   0.0000   0.0000   0.0000   0.0000   0.0000
     0.0000   0.0000   0.0000   0.0000   0.0000   0.0000   0.0000   0.0000
     0.0000   0.0000   0.0000   0.0000   0.0000   0.0000   0.0000   0.0000
     0.0000   0.0000   0.0000   0.0000   0.0000   0.0000   0.0000   0.0000
     0.0000   0.0000   0.0000   0.0000   0.0000   0.0000   0.0000   0.0000
     0.0000   0.0000   0.0000   0.0000   0.0000   0.0000   0.0000   0.0000
     0.0000   0.0000   0.0000   0.0000   0.0000   0.0000   0.0000   0.0000
     0.0000   0.0000   0.0000   0.0000   0.0000   0.0000   0.0000   0.0000
     0.0000   0.0000   0.0000   0.0000   0.0000   0.0000   0.0000   0.0000
     0.0000   0.0000   0.0000   0.0000   0.0000   0.0000   0.0000   0.0000
     0.0000   0.0000   0.0000   0.0000   0.0000   0.0000   0.0000   0.0000
     0.0000   0.0000   0.0000   0.0000   0.0000   0.0000   0.0000   0.0000
     0.0000   0.0000   0.0000   0.0000   0.0000   0.0000   0.0000   0.0000
     0.0000   0.0000   0.0000   0.0000   0.0000   0.0000   0.0000   0.0000
     0.0000   0.0000   0.0000   0.0000   0.0000   0.0000   0.0000   0.0000
     0.0000   0.0000   0.0000   0.0000   0.0000   0.0000   0.0000   0.0000
     0.0000   0.0000   0.0000   0.0000   0.0000   0.0000   0.0000   0.0000
     0.0000   0.0000   0.0000   0.0000   0.0000   0.0000   0.0000   0.0000
     0.0000   0.0000   0.0000   0.0000   0.0000   0.0000   0.0000   0.0000
     0.0000   0.0000   0.0000   0.0000   0.0000   0.0000   0.0000   0.0000
     0.0000   0.0000   0.0000   0.0000   0.0000   0.0000   0.0000   0.0000
     0.0000   0.0000   0.0000   0.0000   0.0000   0.0000   0.0000   0.0000
     0.0000   0.0000   0.0000   0.0000   0.0000   0.0000   0.0000   0.0000
     0.0000   0.0000   0.0000   0.0000   0.0000   0.0000   0.0000   0.0000
     0.0000   0.0000   0.0000   0.0000   0.0000   0.0000   0.0000   0.0000
     0.0000   0.0000   0.0000   0.0000   0.0000   0.0000   0.0000   0.0000
     0.0000   0.0000   0.0000   0.0000   0.0000   0.0000   0.0000   0.0000
     0.0000   0.0000   0.0000   0.0000   0.0000   0.0000   0.0000   0.0000
     0.0000   0.0000   0.0000   0.0000   0.0000   0.0000   0.0000   0.0000
     0.0000   0.0000   0.0000   0.0000   0.0000   0.0000   0.0000   0.0000
     0.0000   0.0000   0.0000   0.0000   0.0000   0.0000   0.0000   0.0000
     0.0000   0.0000   0.0000   0.0000   0.0000   0.0000   0.0000   0.0000
     0.0000   0.0000   0.0000   0.0000   0.0000   0.0000   0.0000   0.0000
     0.0000   0.0000   0.0000   0.0000   0.0000   0.0000   0.0000   0.0000
     0.0000   0.0000   0.0000   0.0000   0.0000   0.0000   0.0000   0.0000
     0.0000   0.0000   0.0000   0.0000   0.0000   0.0000   0.0000   0.0000
     0.0000   0.0000   0.0000   0.0000   0.0000   0.0000   0.0000   0.0000
     0.0000   0.0000   0.0000   0.0000   0.0000   0.0000   0.0000   0.0000
     0.0000   0.0000   0.0000   0.0000   0.0000   0.0000   0.0000   0.0000
     0.0000   0.0000   0.0000   0.0000   0.0000   0.0000   0.0000   0.0000
     0.0000   0.0000   0.0000   0.0000   0.0000   0.0000   0.0000   0.0000
     0.0000   0.0000   0.0000   0.0000   0.0000   0.0000   0.0000   0.0000
     0.0000   0.0000   0.0000   0.0000   0.0000   0.0000   0.0000   0.0000
     0.0000   0.0000   0.0000   0.0000   0.0000   0.0000   0.0000   0.0000
     0.0000   0.0000   0.0000   0.0000   0.0000   0.0000   0.0000   0.0000
     0.0000   0.0000   0.0000   0.0000   0.0000   0.0000   0.0000   0.0000
     0.0000   0.0000   0.0000   0.0000   0.0000   0.0000   0.0000   0.0000
     0.0000   0.0000   0.0000   0.0000   0.0000   0.0000   0.0000   0.0000
     0.0000   0.0000   0.0000   0.0000   0.0000   0.0000   0.0000   0.0000
     0.0000   0.0000   0.0000   0.0000   0.0000   0.0000   0.0000   0.0000
     0.0000   0.0000   0.0000   0.0000   0.0000   0.0000   0.0000   0.0000
     0.0000   0.0000   0.0000   0.0000   0.0000   0.0000   0.0000   0.0000
     0.0000   0.0000   0.0000   0.0000   0.0000   0.0000   0.0000   0.0000
     0.0000   0.0000   0.0000   0.0000   0.0000   0.0000   0.0000   0.0000
     0.0000   0.0000   0.0000   0.0000   0.0000   0.0000   0.0000   0.0000
     0.0000   0.0000   0.0000   0.0000   0.0000   0.0000   0.0000   0.0000
     0.0000   0.0000   0.0000   0.0000   0.0000   0.0000   0.0000   0.0000
     0.0000   0.0000   0.0000   0.0000   0.0000   0.0000   0.0000   0.0000
     0.0000   0.0000   0.0000   0.0000   0.0000   0.0000   0.0000   0.0000
     0.0000   0.0000   0.0000   0.0000   0.0000   0.0000   0.0000   0.0000
     0.0000   0.0000   0.0000   0.0000   0.0000   0.0000   0.0000   0.0000
     0.0000   0.0000   0.0000   0.0000   0.0000   0.0000   0.0000   0.0000
     0.0000   0.0000   0.0000   0.0000   0.0000   0.0000   0.0000   0.0000
     0.0000   0.0000   0.0000   0.0000   0.0000   0.0000   0.0000   0.0000
     0.0000   0.0000   0.0000   0.0000   0.0000   0.0000   0.0000   0.0000
     0.0000   0.0000   0.0000   0.0000   0.0000   0.0000   0.0000   0.0000
     0.0000   0.0000   0.0000   0.0000   0.0000   0.0000   0.0000   0.0000
     0.0000   0.0000   0.0000   0.0000   0.0000   0.0000   0.0000   0.0000
     0.0000   0.0000   0.0000   0.0000   0.0000   0.0000   0.0000   0.0000
     0.0000   0.0000   0.0000   0.0000   0.0000   0.0000   0.0000   0.0000
     0.0000   0.0000   0.0000   0.0000   0.0000   0.0000   0.0000   0.0000
     0.0000   0.0000   0.0000   0.0000   0.0000   0.0000   0.0000   0.0000
     0.0000   0.0000   0.0000   0.0000   0.0000   0.0000   0.0000   0.0000
     0.0000   0.0000   0.0000   0.0000   0.0000   0.0000   0.0000   0.0000
     0.0000   0.0000   0.0000   0.0000   0.0000   0.0000   0.0000   0.0000
     0.0000   0.0000   0.0000   0.0000   0.0000   0.0000   0.0000   0.0000
     0.0000   0.0000   0.0000   0.0000   0.0000   0.0000   0.0000   0.0000
     0.0000   0.0000   0.0000   0.0000   0.0000   0.0000   0.0000   0.0000
     0.0000   0.0000   0.0000   0.0000   0.0000   0.0000   0.0000   0.0000
     0.0000   0.0000   0.0000   0.0000   0.0000   0.0000   0.0000   0.0000
     0.0000   0.0000   0.0000   0.0000   0.0000   0.0000   0.0000   0.0000
     0.0000   0.0000   0.0000   0.0000   0.0000   0.0000   0.0000   0.0000
     0.0000   0.0000   0.0000   0.0000   0.0000   0.0000   0.0000   0.0000
     0.0000   0.0000   0.0000   0.0000   0.0000   0.0000   0.0000   0.0000
     0.0000   0.0000   0.0000   0.0000   0.0000   0.0000   0.0000   0.0000
     0.0000   0.0000   0.0000   0.0000   0.0000   0.0000   0.0000   0.0000
     0.0000   0.0000   0.0000   0.0000   0.0000   0.0000   0.0000   0.0000
     0.0000   0.0000   0.0000   0.0000   0.0000   0.0000   0.0000   0.0000
     0.0000   0.0000   0.0000   0.0000   0.0000   0.0000   0.0000   0.0000
     0.0000   0.0000   0.0000   0.0000   0.0000   0.0000   0.0000   0.0000
     0.0000   0.0000   0.0000   0.0000   0.0000   0.0000   0.0000   0.0000
     0.0000   0.0000   0.0000   0.0000   0.0000   0.0000   0.0000   0.0000
     0.0000   0.0000   0.0000   0.0000   0.0000   0.0000   0.0000   0.0000
     0.0000   0.0000   0.0000   0.0000   0.0000   0.0000   0.0000   0.0000
     0.0000   0.0000   0.0000   0.0000   0.0000   0.0000   0.0000   0.0000
     0.0000   0.0000   0.0000   0.0000   0.0000   0.0000   0.0000   0.0000
     0.0000   0.0000   0.0000   0.0000   0.0000   0.0000   0.0000   0.0000
     0.0000   0.0000   0.0000   0.0000   0.0000   0.0000   0.0000   0.0000
     0.0000   0.0000   0.0000   0.0000   0.0000   0.0000   0.0000   0.0000
     0.0000   0.0000   0.0000   0.0000   0.0000   0.0000   0.0000   0.0000
     0.0000   0.0000   0.0000   0.0000   0.0000   0.0000   0.0000   0.0000
     0.0000   0.0000   0.0000   0.0000   0.0000   0.0000   0.0000   0.0000
     0.0000   0.0000   0.0000   0.0000   0.0000   0.0000   0.0000   0.0000
     0.0000   0.0000   0.0000   0.0000   0.0000   0.0000   0.0000   0.0000
     0.0000   0.0000   0.0000   0.0000   0.0000   0.0000   0.0000   0.0000
     0.0000   0.0000   0.0000   0.0000   0.0000   0.0000   0.0000   0.0000
     0.0000   0.0000   0.0000   0.0000   0.0000   0.0000   0.0000   0.0000
     0.0000   0.0000   0.0000   0.0000   0.0000   0.0000   0.0000   0.0000
     0.0000   0.0000   0.0000   0.0000   0.0000   0.0000   0.0000   0.0000
     0.0000   0.0000   0.0000   0.0000   0.0000   0.0000   0.0000   0.0000
     0.0000   0.0000   0.0000   0.0000   0.0000   0.0000   0.0000   0.0000
     0.0000   0.0000   0.0000   0.0000   0.0000   0.0000   0.0000   0.0000
     0.0000   0.0000   0.0000   0.0000   0.0000   0.0000   0.0000   0.0000
     0.0000   0.0000   0.0000   0.0000   0.0000   0.0000   0.0000   0.0000
     0.0000   0.0000   0.0000   0.0000   0.0000   0.0000   0.0000   0.0000
     0.0000   0.0000   0.0000   0.0000   0.0000   0.0000   0.0000   0.0000
     0.0000   0.0000   0.0000   0.0000   0.0000   0.0000   0.0000   0.0000
     0.0000   0.0000   0.0000   0.0000   0.0000   0.0000   0.0000   0.0000
     0.0000   0.0000   0.0000   0.0000   0.0000   0.0000   0.0000   0.0000
     0.0000   0.0000   0.0000   0.0000   0.0000   0.0000   0.0000   0.0000
     0.0000   0.0000   0.0000   0.0000   0.0000   0.0000   0.0000   0.0000
     0.0000   0.0000   0.0000   0.0000   0.0000   0.0000   0.0000   0.0000
     0.0000   0.0000   0.0000   0.0000   0.0000   0.0000   0.0000   0.0000
     0.0000   0.0000   0.0000   0.0000   0.0000   0.0000   0.0000   0.0000
     0.0000   0.0000   0.0000   0.0000   0.0000   0.0000   0.0000   0.0000
     0.0000   0.0000   0.0000   0.0000   0.0000   0.0000   0.0000   0.0000
     0.0000   0.0000   0.0000   0.0000   0.0000   0.0000   0.0000   0.0000
     0.0000   0.0000   0.0000   0.0000   0.0000   0.0000   0.0000   0.0000
     0.0000   0.0000   0.0000   0.0000   0.0000   0.0000   0.0000   0.0000
     0.0000   0.0000   0.0000   0.0000   0.0000   0.0000   0.0000   0.0000
     0.0000   0.0000   0.0000   0.0000   0.0000   0.0000   0.0000   0.0000
     0.0000   0.0000   0.0000   0.0000   0.0000   0.0000   0.0000   0.0000
     0.0000   0.0000   0.0000   0.0000   0.0000   0.0000   0.0000   0.0000
     0.0000   0.0000   0.0000   0.0000   0.0000   0.0000   0.0000   0.0000
     0.0000   0.0000   0.0000   0.0000   0.0000   0.0000   0.0000   0.0000
     0.0000   0.0000   0.0000   0.0000   0.0000   0.0000   0.0000   0.0000
     0.0000   0.0000   0.0000   0.0000   0.0000   0.0000   0.0000   0.0000
     0.0000   0.0000   0.0000   0.0000   0.0000   0.0000   0.0000   0.0000
     0.0000   0.0000   0.0000   0.0000   0.0000   0.0000   0.0000   0.0000
     0.0000   0.0000   0.0000   0.0000   0.0000   0.0000   0.0000   0.0000
     0.0000   0.0000   0.0000   0.0000   0.0000   0.0000   0.0000   0.0000
     0.0000   0.0000   0.0000   0.0000   0.0000   0.0000   0.0000   0.0000
     0.0000   0.0000   0.0000   0.0000   0.0000   0.0000   0.0000   0.0000
     0.0000   0.0000   0.0000   0.0000   0.0000   0.0000   0.0000   0.0000
     0.0000   0.0000   0.0000   0.0000   0.0000   0.0000   0.0000   0.0000
     0.0000   0.0000   0.0000   0.0000   0.0000   0.0000   0.0000   0.0000
     0.0000   0.0000   0.0000   0.0000   0.0000   0.0000   0.0000   0.0000
     0.0000   0.0000   0.0000   0.0000   0.0000   0.0000   0.0000   0.0000
     0.0000   0.0000   0.0000   0.0000   0.0000   0.0000   0.0000   0.0000
     0.0000   0.0000   0.0000   0.0000   0.0000   0.0000   0.0000   0.0000
     0.0000   0.0000   0.0000   0.0000   0.0000   0.0000   0.0000   0.0000
     0.0000   0.0000   0.0000   0.0000   0.0000   0.0000   0.0000   0.0000
     0.0000   0.0000   0.0000   0.0000   0.0000   0.0000   0.0000   0.0000
     0.0000   0.0000   0.0000   0.0000   0.0000   0.0000   0.0000   0.0000
     0.0000   0.0000   0.0000   0.0000   0.0000   0.0000   0.0000   0.0000
     0.0000   0.0000   0.0000   0.0000   0.0000   0.0000   0.0000   0.0000
     0.0000   0.0000   0.0000   0.0000   0.0000   0.0000   0.0000   0.0000
     0.0000   0.0000   0.0000   0.0000   0.0000   0.0000   0.0000   0.0000
     0.0000   0.0000   0.0000   0.0000   0.0000   0.0000   0.0000   0.0000
     0.0000   0.0000   0.0000   0.0000   0.0000   0.0000   0.0000   0.0000
     0.0000   0.0000   0.0000   0.0000   0.0000   0.0000   0.0000   0.0000
     0.0000   0.0000   0.0000   0.0000   0.0000   0.0000   0.0000   0.0000
     0.0000   0.0000   0.0000   0.0000   0.0000   0.0000   0.0000   0.0000
     0.0000   0.0000   0.0000   0.0000   0.0000   0.0000   0.0000   0.0000
     0.0000   0.0000   0.0000   0.0000   0.0000   0.0000   0.0000   0.0000
     0.0000   0.0000   0.0000   0.0000   0.0000   0.0000   0.0000   0.0000
     0.0000   0.0000   0.0000   0.0000   0.0000   0.0000   0.0000   0.0000
     0.0000   0.0000   0.0000   0.0000   0.0000   0.0000   0.0000   0.0000
     0.0000   0.0000   0.0000   0.0000   0.0000   0.0000   0.0000   0.0000
     0.0000   0.0000   0.0000   0.0000   0.0000   0.0000   0.0000   0.0000
     0.0000   0.0000   0.0000   0.0000   0.0000   0.0000   0.0000   0.0000
     0.0000   0.0000   0.0000   0.0000   0.0000   0.0000   0.0000   0.0000
     0.0000   0.0000   0.0000   0.0000   0.0000   0.0000   0.0000   0.0000
     0.0000   0.0000   0.0000   0.0000   0.0000   0.0000   0.0000   0.0000
     0.0000   0.0000   0.0000   0.0000   0.0000   0.0000   0.0000   0.0000
     0.0000   0.0000   0.0000   0.0000   0.0000   0.0000   0.0000   0.0000
     0.0000   0.0000   0.0000   0.0000   0.0000   0.0000   0.0000   0.0000
     0.0000   0.0000   0.0000   0.0000   0.0000   0.0000   0.0000   0.0000
     0.0000   0.0000   0.0000   0.0000   0.0000   0.0000   0.0000   0.0000
     0.0000   0.0000   0.0000   0.0000   0.0000   0.0000   0.0000   0.0000
     0.0000   0.0000   0.0000   0.0000   0.0000   0.0000   0.0000   0.0000
     0.0000   0.0000   0.0000   0.0000   0.0000   0.0000   0.0000   0.0000
     0.0000   0.0000   0.0000   0.0000   0.0000   0.0000   0.0000   0.0000
     0.0000   0.0000   0.0000   0.0000   0.0000   0.0000   0.0000   0.0000
     0.0000   0.0000   0.0000   0.0000   0.0000   0.0000   0.0000   0.0000
     0.0000   0.0000   0.0000   0.0000   0.0000   0.0000   0.0000   0.0000
     0.0000   0.0000   0.0000   0.0000   0.0000   0.0000   0.0000   0.0000
     0.0000   0.0000   0.0000   0.0000   0.0000   0.0000   0.0000   0.0000
     0.0000   0.0000   0.0000   0.0000   0.0000   0.0000   0.0000   0.0000
     0.0000   0.0000   0.0000   0.0000   0.0000   0.0000   0.0000   0.0000
     0.0000   0.0000   0.0000   0.0000   0.0000   0.0000   0.0000   0.0000
     0.0000   0.0000   0.0000   0.0000   0.0000   0.0000   0.0000   0.0000
     0.0000   0.0000   0.0000   0.0000   0.0000   0.0000   0.0000   0.0000
     0.0000   0.0000   0.0000   0.0000   0.0000   0.0000   0.0000   0.0000
     0.0000   0.0000   0.0000   0.0000   0.0000   0.0000   0.0000   0.0000
     0.0000   0.0000   0.0000   0.0000   0.0000   0.0000   0.0000   0.0000
     0.0000   0.0000   0.0000   0.0000   0.0000   0.0000   0.0000   0.0000
     0.0000   0.0000   0.0000   0.0000   0.0000   0.0000   0.0000   0.0000
     0.0000   0.0000   0.0000   0.0000   0.0000   0.0000   0.0000   0.0000
     0.0000   0.0000   0.0000   0.0000   0.0000   0.0000   0.0000   0.0000

     the Fermi energy is    10.3340 ev
     (compare with:    11.0862 eV, computed in scf)

     Writing all to output data dir temp/pwscf.save/
 
     init_run     :      3.33s CPU      6.02s WALL (       1 calls)
     electrons    :   7235.48s CPU   7308.34s WALL (       1 calls)

     Called by init_run:
     aceinit0     :      1.99s CPU      4.54s WALL (       1 calls)
     wfcinit      :      0.00s CPU      0.00s WALL (       1 calls)
     wfcinit:atom :      0.07s CPU      0.13s WALL (       4 calls)
     wfcinit:wfcr :     64.84s CPU     66.21s WALL (       4 calls)
     potinit      :      0.29s CPU      0.38s WALL (       1 calls)
     hinit0       :      0.92s CPU      0.94s WALL (       1 calls)

     Called by electrons:
     c_bands      :   5680.00s CPU   5736.35s WALL (       2 calls)
     sum_band     :      1.76s CPU      4.44s WALL (       1 calls)
     v_of_rho     :      0.49s CPU      0.52s WALL (       2 calls)
     v_h          :      0.01s CPU      0.01s WALL (       2 calls)
     v_xc         :      0.49s CPU      0.51s WALL (       2 calls)

     Called by c_bands:
     init_us_2    :      0.14s CPU      0.18s WALL (       6 calls)
     init_us_2:cp :      0.14s CPU      0.18s WALL (       6 calls)
     regterg      :   5601.39s CPU   5645.29s WALL (       6 calls)

     Called by sum_band:
     sum_band:wei :      0.00s CPU      0.01s WALL (       1 calls)
     sum_band:loo :      1.27s CPU      3.93s WALL (       1 calls)
     sum_band:buf :      0.00s CPU      2.66s WALL (       2 calls)
     sum_band:ini :      0.04s CPU      0.04s WALL (       2 calls)

     Called by *egterg:
     rdiaghg      :   4884.54s CPU   4899.89s WALL (     112 calls)
     regterg:over :     98.05s CPU    102.62s WALL (     108 calls)
     regterg:upda :     35.09s CPU     37.53s WALL (     108 calls)
     regterg:last :     80.94s CPU     86.53s WALL (      60 calls)
     h_psi        :    461.49s CPU    468.79s WALL (     118 calls)
     g_psi        :      1.13s CPU      1.14s WALL (     108 calls)

     Called by h_psi:
     h_psi:calbec :     69.83s CPU     70.27s WALL (     118 calls)
     vloc_psi     :    162.93s CPU    164.82s WALL (     118 calls)
     add_vuspsi   :     70.20s CPU     71.07s WALL (     118 calls)

     General routines
     calbec       :    127.49s CPU    128.04s WALL (     238 calls)
     fft          :      0.10s CPU      0.12s WALL (      25 calls)
     ffts         :      0.00s CPU      0.00s WALL (       1 calls)
     fftw         :    131.87s CPU    133.32s WALL (  183904 calls)
     fftc         :    456.68s CPU    460.39s WALL (  933750 calls)
     fftcw        :      1.63s CPU      1.70s WALL (    4134 calls)
     davcio       :      0.01s CPU     10.89s WALL (      16 calls)
 
     Parallel routines

     EXX routines
     exx_grid     :      0.00s CPU      0.00s WALL (       1 calls)
     exxinit      :     23.32s CPU     24.45s WALL (       1 calls)
     vexx         :   1523.97s CPU   1533.63s WALL (       2 calls)
     matcalc      :     57.98s CPU     58.17s WALL (     120 calls)
     aceupdate    :      3.27s CPU      3.42s WALL (       2 calls)
     vexxace      :    156.44s CPU    160.32s WALL (     118 calls)
     aceinit      :   1530.09s CPU   1539.93s WALL (       2 calls)
 
     PWSCF        :      2h 0m CPU      2h 2m WALL

 
   This run was terminated on:  23:18:28  14Dec2023            

=------------------------------------------------------------------------------=
   JOB DONE.
=------------------------------------------------------------------------------=
