
     Program PWSCF v.7.2 starts on 14Dec2023 at 16:11:53 

     This program is part of the open-source Quantum ESPRESSO suite
     for quantum simulation of materials; please cite
         "P. Giannozzi et al., J. Phys.:Condens. Matter 21 395502 (2009);
         "P. Giannozzi et al., J. Phys.:Condens. Matter 29 465901 (2017);
         "P. Giannozzi et al., J. Chem. Phys. 152 154105 (2020);
          URL http://www.quantum-espresso.org", 
     in publications or presentations arising from this work. More details at
     http://www.quantum-espresso.org/quote

     Parallel version (MPI), running on   512 processors

     MPI processes distributed on    16 nodes
     154323 MiB available memory on the printing compute node when the environment starts
 
     Reading input from scf.in
Warning: card &CELL ignored
Warning: card / ignored

     Current dimensions of program PWSCF are:
     Max number of different atomic species (ntypx) = 10
     Max number of k-points (npk) =  40000
     Max angular momentum in pseudopotentials (lmaxx) =  4

     IMPORTANT: XC functional enforced from input :
     Exchange-correlation= HSE
                           (   1   4  12   4   0   0   0)
     EXX-fraction              =        0.25
     Any further DFT definition will be discarded
     Please, verify this is what you really want

     EXX fraction changed:   0.38

     gamma-point specific algorithms are used
 
     K-points division:     npool     =       2
     band groups division:  nbgrp     =       4
     R & G space division:  proc/nbgrp/npool/nimage =      64
     Subspace diagonalization in iterative solution of the eigenvalue problem:
     a serial algorithm will be used

     EXX: q-point mesh:     1    1    1
     EXX: grid of k+q points same as grid of k-points
 
     Parallelization info
     --------------------
     sticks:   dense  smooth     PW     G-vecs:    dense   smooth      PW
     Min         206     206     50                23254    23254    2890
     Max         208     208     52                23280    23280    2916
     Sum       13273   13273   3319              1489031  1489031  186077
 
     Using Slab Decomposition
 


     bravais-lattice index     =            0
     lattice parameter (alat)  =      24.5558  a.u.
     unit-cell volume          =   15406.2245 (a.u.)^3
     number of atoms/cell      =          191
     number of atomic types    =            4
     number of electrons       =      2482.00
     number of Kohn-Sham states=         1260
     kinetic-energy cutoff     =      80.0000  Ry
     charge density cutoff     =     320.0000  Ry
     cutoff for Fock operator  =     160.0000  Ry
     scf convergence threshold =      1.0E-09
     mixing beta               =       0.4000
     number of iterations used =            8  plain     mixing
     Exchange-correlation= HSE
                           (   1   4  12   4   0   0   0)
     EXX-fraction              =        0.38

     celldm(1)=  24.555771  celldm(2)=   0.000000  celldm(3)=   0.000000
     celldm(4)=   0.000000  celldm(5)=   0.000000  celldm(6)=   0.000000

     crystal axes: (cart. coord. in units of alat)
               a(1) = (   1.000000   0.000000   0.000000 )  
               a(2) = (  -0.500000   0.866025   0.000000 )  
               a(3) = (   0.000000   0.000000   1.201448 )  

     reciprocal axes: (cart. coord. in units 2 pi/alat)
               b(1) = (  1.000000  0.577350  0.000000 )  
               b(2) = (  0.000000  1.154701  0.000000 )  
               b(3) = (  0.000000  0.000000  0.832329 )  


     PseudoPot. # 1 for Zn read from file:
     ~/Pseudopotential/pseudo-ONCV-proj/Zn_ONCV_PBE-1.0.upf
     MD5 check sum: Not computed, couldn't open file
     Pseudo is Norm-conserving, Zval = 20.0
     Generated using ONCVPSP code by D. R. Hamann
     Using radial grid of 1326 points,  6 beta functions with: 
                l(1) =   0
                l(2) =   0
                l(3) =   1
                l(4) =   1
                l(5) =   2
                l(6) =   2

     PseudoPot. # 2 for Zn read from file:
     ~/Pseudopotential/pseudo-ONCV-proj/Zn_ONCV_PBE-1.0.upf
     MD5 check sum: Not computed, couldn't open file
     Pseudo is Norm-conserving, Zval = 20.0
     Generated using ONCVPSP code by D. R. Hamann
     Using radial grid of 1326 points,  6 beta functions with: 
                l(1) =   0
                l(2) =   0
                l(3) =   1
                l(4) =   1
                l(5) =   2
                l(6) =   2

     PseudoPot. # 3 for O  read from file:
     ~/Pseudopotential/pseudo-ONCV-proj/O_ONCV_PBE-1.0.upf
     MD5 check sum: Not computed, couldn't open file
     Pseudo is Norm-conserving, Zval =  6.0
     Generated using ONCVPSP code by D. R. Hamann
     Using radial grid of  936 points,  4 beta functions with: 
                l(1) =   0
                l(2) =   0
                l(3) =   1
                l(4) =   1

     PseudoPot. # 4 for Nb read from file:
     ~/Pseudopotential/pseudo-ONCV-proj/Nb_ONCV_PBE-1.0.upf
     MD5 check sum: Not computed, couldn't open file
     Pseudo is Norm-conserving, Zval = 13.0
     Generated using ONCVPSP code by D. R. Hamann
     Using radial grid of 1564 points,  6 beta functions with: 
                l(1) =   0
                l(2) =   0
                l(3) =   1
                l(4) =   1
                l(5) =   2
                l(6) =   2

     atomic species   valence    mass     pseudopotential
        Zn1           20.00    65.39000     Zn( 1.00)
        Zn            20.00    65.39000     Zn( 1.00)
        O              6.00    15.99940     O ( 1.00)
        Nb            13.00    92.90638     Nb( 1.00)

     Starting magnetic structure 
     atomic species   magnetization
        Zn1          0.500
        Zn           0.000
        O            0.000
        Nb           1.000

     No symmetry found


                                    s                        frac. trans.

      isym =  1     identity                                     

 cryst.   s( 1) = (     1          0          0      )
                  (     0          1          0      )
                  (     0          0          1      )

 cart.    s( 1) = (  1.0000000  0.0000000  0.0000000 )
                  (  0.0000000  1.0000000  0.0000000 )
                  (  0.0000000  0.0000000  1.0000000 )


   Cartesian axes

     site n.     atom                  positions (alat units)
         1           Zn  tau(   1) = (   0.1249110   0.0722201   0.1993328  )
         2           Zn  tau(   2) = (   0.1251042   0.0721086   0.6013137  )
         3           Zn  tau(   3) = (   0.1248852   0.0722351   1.0015034  )
         4           Zn  tau(   4) = (  -0.0002056   0.2885472   0.1997708  )
         5           Zn  tau(   5) = (  -0.0004982   0.2883931   0.6010211  )
         6           Zn  tau(   6) = (   0.0000266   0.2886747   1.0015505  )
         7           Zn  tau(   7) = (  -0.1249999   0.5050699   0.1993361  )
         8           Zn  tau(   8) = (  -0.1249950   0.5053323   0.6013061  )
         9           Zn  tau(   9) = (  -0.1250008   0.5050399   1.0015236  )
        10           Zn  tau(  10) = (  -0.2499270   0.7217293   0.1993447  )
        11           Zn  tau(  11) = (  -0.2493246   0.7220912   0.6012722  )
        12           Zn  tau(  12) = (  -0.2499100   0.7217468   1.0017931  )
        13           Zn  tau(  13) = (   0.3750005   0.0720848   0.1993447  )
        14           Zn  tau(  14) = (   0.3749883   0.0713821   0.6012722  )
        15           Zn  tau(  15) = (   0.3749939   0.0720613   1.0017931  )
        16           Zn  tau(  16) = (   0.2493206   0.2882054   0.1996078  )
        17           Zn  tau(  17) = (   0.2459922   0.2844998   0.6036182  )
        18           Zn  tau(  18) = (   0.2511543   0.2894290   1.0004209  )
        19           Zn  tau(  19) = (   0.1242474   0.5048258   0.1996031  )
        20           Zn  tau(  20) = (   0.1193579   0.5038257   0.6036215  )
        21           Zn  tau(  21) = (   0.1261721   0.5058125   1.0004431  )
        22           Zn  tau(  22) = (  -0.0000837   0.7217361   0.1993439  )
        23           Zn  tau(  23) = (  -0.0007050   0.7220948   0.6012807  )
        24           Zn  tau(  24) = (  -0.0001334   0.7217648   1.0018086  )
        25           Zn  tau(  25) = (   0.6250967   0.0722244   0.1993361  )
        26           Zn  tau(  26) = (   0.6248718   0.0720890   0.6013061  )
        27           Zn  tau(  27) = (   0.6251221   0.0722402   1.0015236  )
        28           Zn  tau(  28) = (   0.5006905   0.2882038   0.1996105  )
        29           Zn  tau(  29) = (   0.5040440   0.2844787   0.6036220  )
        30           Zn  tau(  30) = (   0.4989037   0.2893959   1.0004391  )
        31           Zn  tau(  31) = (   0.3749946   0.5051846   0.2013690  )
        32           Zn  tau(  32) = (   0.3749896   0.5051875   1.0025882  )
        33           Zn  tau(  33) = (   0.2499318   0.7225174   0.1996031  )
        34           Zn  tau(  34) = (   0.2483531   0.7272519   0.6036215  )
        35           Zn  tau(  35) = (   0.2500396   0.7203572   1.0004431  )
        36           Zn  tau(  36) = (   0.8750080   0.0724108   0.1997708  )
        37           Zn  tau(  37) = (   0.8749951   0.0727413   0.6010211  )
        38           Zn  tau(  38) = (   0.8750137   0.0721460   1.0015505  )
        39           Zn  tau(  39) = (   0.7502274   0.2885439   0.1997737  )
        40           Zn  tau(  40) = (   0.7505465   0.2883596   0.6010479  )
        41           Zn  tau(  41) = (   0.7500382   0.2886530   1.0015661  )
        42           Zn  tau(  42) = (   0.6257534   0.5048191   0.1996105  )
        43           Zn  tau(  43) = (   0.6306563   0.5037774   0.6036220  )
        44           Zn  tau(  44) = (   0.6238276   0.5057705   1.0004391  )
        45           Zn  tau(  45) = (   0.5000671   0.7225110   0.1996078  )
        46           Zn  tau(  46) = (   0.5016121   0.7272463   0.6036182  )
        47           Zn  tau(  47) = (   0.4999243   0.7203112   1.0004209  )
        48           Zn  tau(  48) = (  -0.0000581   0.1443711  -0.0000461  )
        49           Zn  tau(  49) = (  -0.0000392   0.1443602   0.4000778  )
        50           Zn  tau(  50) = (   0.0001562   0.1442474   0.8013923  )
        51           Zn  tau(  51) = (  -0.1249955   0.3607752  -0.0000374  )
        52           Zn  tau(  52) = (  -0.1249969   0.3608030   0.4000786  )
        53           Zn  tau(  53) = (  -0.1249657   0.3610611   0.8014068  )
        54           Zn  tau(  54) = (  -0.2501064   0.5772511   1.2010348  )
        55           Zn  tau(  55) = (  -0.2490692   0.5777457   0.3994930  )
        56           Zn  tau(  56) = (  -0.2508155   0.5776757   0.8023537  )
        57           Zn  tau(  57) = (  -0.3751506   0.7938147   1.2010279  )
        58           Zn  tau(  58) = (  -0.3742049   0.7944716   0.3994924  )
        59           Zn  tau(  59) = (  -0.3751678   0.7929804   0.8023548  )
        60           Zn  tau(  60) = (   0.2499609   0.1444889   1.2010279  )
        61           Zn  tau(  61) = (   0.2498649   0.1433415   0.3994924  )
        62           Zn  tau(  62) = (   0.2506749   0.1449209   0.8023548  )
        63           Zn  tau(  63) = (   0.1251416   0.3609296   1.2008461  )
        64           Zn  tau(  64) = (   0.1242338   0.3604086   0.4001131  )
        65           Zn  tau(  65) = (   0.1253180   0.3610737   0.8025859  )
        66           Zn  tau(  66) = (   0.0000968   0.5772487   1.2010416  )
        67           Zn  tau(  67) = (  -0.0009410   0.5777493   0.3994912  )
        68           Zn  tau(  68) = (   0.0008036   0.5777058   0.8023596  )
        69           Zn  tau(  69) = (  -0.1250097   0.7938622  -0.0000034  )
        70           Zn  tau(  70) = (  -0.1250090   0.7938618   0.3995817  )
        71           Zn  tau(  71) = (  -0.1250524   0.7938868   0.8015839  )
        72           Zn  tau(  72) = (   0.5000326   0.1444793   1.2010348  )
        73           Zn  tau(  73) = (   0.5001229   0.1433338   0.3994930  )
        74           Zn  tau(  74) = (   0.4993103   0.1448811   0.8023537  )
        75           Zn  tau(  75) = (   0.3750111   0.3608129   0.0010419  )
        76           Zn  tau(  76) = (   0.3750079   0.3583469   0.3962308  )
        77           Zn  tau(  77) = (   0.3750776   0.3728766   0.7966727  )
        78           Zn  tau(  78) = (   0.2499688   0.5773682   0.0010417  )
        79           Zn  tau(  79) = (   0.2478200   0.5786089   0.3962367  )
        80           Zn  tau(  80) = (   0.2603746   0.5713605   0.7966939  )
        81           Zn  tau(  81) = (   0.1251364   0.7938235   1.2010416  )
        82           Zn  tau(  82) = (   0.1241839   0.7944720   0.3994912  )
        83           Zn  tau(  83) = (   0.1250939   0.7929828   0.8023596  )
        84           Zn  tau(  84) = (   0.7500617   0.1443680  -0.0000374  )
        85           Zn  tau(  85) = (   0.7500370   0.1443553   0.4000786  )
        86           Zn  tau(  86) = (   0.7498290   0.1441992   0.8014068  )
        87           Zn  tau(  87) = (   0.6248592   0.3609252   1.2008662  )
        88           Zn  tau(  88) = (   0.6257753   0.3603963   0.4001133  )
        89           Zn  tau(  89) = (   0.6247657   0.3609792   0.8026163  )
        90           Zn  tau(  90) = (   0.5000324   0.5773561   0.0010419  )
        91           Zn  tau(  91) = (   0.5021664   0.5785919   0.3962308  )
        92           Zn  tau(  92) = (   0.4896182   0.5712667   0.7966727  )
        93           Zn  tau(  93) = (   0.3749966   0.7936911   1.2008461  )
        94           Zn  tau(  94) = (   0.3749939   0.7947377   0.4001131  )
        95           Zn  tau(  95) = (   0.3749600   0.7934663   0.8025859  )
        96           O   tau(  96) = (   0.1248050   0.0722813   0.3525260  )
        97           O   tau(  97) = (   0.1254905   0.0718856   0.7536076  )
        98           O   tau(  98) = (   0.1249514   0.0721968   1.1541558  )
        99           O   tau(  99) = (  -0.0000146   0.2886594   0.3529910  )
       100           O   tau( 100) = (   0.0005508   0.2889865   0.7532638  )
       101           O   tau( 101) = (   0.0000891   0.2887172   1.1541694  )
       102           O   tau( 102) = (  -0.1250012   0.5049482   0.3525301  )
       103           O   tau( 103) = (  -0.1249832   0.5057675   0.7536006  )
       104           O   tau( 104) = (  -0.1249967   0.5051103   1.1541705  )
       105           O   tau( 105) = (  -0.2500396   0.7216655   0.3525074  )
       106           O   tau( 106) = (  -0.2501273   0.7216325   0.7533261  )
       107           O   tau( 107) = (  -0.2500012   0.7216825   1.1543000  )
       108           O   tau( 108) = (   0.3749995   0.0722142   0.3525074  )
       109           O   tau( 109) = (   0.3749842   0.0723067   0.7533261  )
       110           O   tau( 110) = (   0.3750039   0.0721725   1.1543000  )
       111           O   tau( 111) = (   0.2497824   0.2885630   0.3536372  )
       112           O   tau( 112) = (   0.2515756   0.2901872   0.7541853  )
       113           O   tau( 113) = (   0.2505690   0.2890673   1.1535723  )
       114           O   tau( 114) = (   0.1247847   0.5050387   0.3536287  )
       115           O   tau( 115) = (   0.1269959   0.5058480   0.7541907  )
       116           O   tau( 116) = (   0.1256099   0.5054795   1.1535874  )
       117           O   tau( 117) = (   0.0000309   0.7216700   0.3525065  )
       118           O   tau( 118) = (   0.0000530   0.7216572   0.7533329  )
       119           O   tau( 119) = (  -0.0000013   0.7216885   1.1543125  )
       120           O   tau( 120) = (   0.6252014   0.0722865   0.3525301  )
       121           O   tau( 121) = (   0.6245009   0.0718612   0.7536006  )
       122           O   tau( 122) = (   0.6250632   0.0722015   1.1541705  )
       123           O   tau( 123) = (   0.5002356   0.2885609   0.3536380  )
       124           O   tau( 124) = (   0.4985427   0.2900950   0.7541886  )
       125           O   tau( 125) = (   0.4994619   0.2890523   1.1535857  )
       126           O   tau( 126) = (   0.3749961   0.5051837   0.3582663  )
       127           O   tau( 127) = (   0.3750038   0.5051792   1.1547359  )
       128           O   tau( 128) = (   0.2500160   0.7219456   0.3536287  )
       129           O   tau( 129) = (   0.2504207   0.7196261   0.7541907  )
       130           O   tau( 130) = (   0.2500468   0.7210106   1.1535874  )
       131           O   tau( 131) = (   0.8750063   0.0721893   0.3529910  )
       132           O   tau( 132) = (   0.8750057   0.0715361   0.7532638  )
       133           O   tau( 133) = (   0.8750081   0.0720705   1.1541694  )
       134           O   tau( 134) = (   0.7500363   0.2886542   0.3529918  )
       135           O   tau( 135) = (   0.7495554   0.2889318   0.7532778  )
       136           O   tau( 136) = (   0.7499368   0.2887116   1.1541827  )
       137           O   tau( 137) = (   0.6252168   0.5050346   0.3536380  )
       138           O   tau( 138) = (   0.6230417   0.5057336   0.7541886  )
       139           O   tau( 139) = (   0.6244043   0.5054588   1.1535857  )
       140           O   tau( 140) = (   0.4999883   0.7219323   0.3536372  )
       141           O   tau( 141) = (   0.4994783   0.7195672   0.7541853  )
       142           O   tau( 142) = (   0.4999448   0.7209989   1.1535723  )
       143           O   tau( 143) = (  -0.0000508   0.1443669   0.1528759  )
       144           O   tau( 144) = (   0.0002617   0.1441865   0.5530789  )
       145           O   tau( 145) = (  -0.0000468   0.1443646   0.9536431  )
       146           O   tau( 146) = (  -0.1249991   0.3607862   0.1528821  )
       147           O   tau( 147) = (  -0.1249894   0.3611846   0.5530772  )
       148           O   tau( 148) = (  -0.1249858   0.3607969   0.9536524  )
       149           O   tau( 149) = (  -0.2500858   0.5772909   0.1526930  )
       150           O   tau( 150) = (  -0.2498342   0.5778145   0.5525303  )
       151           O   tau( 151) = (  -0.2502380   0.5773261   0.9542721  )
       152           O   tau( 152) = (  -0.3751010   0.7938157   0.1526895  )
       153           O   tau( 153) = (  -0.3745497   0.7937906   0.5525322  )
       154           O   tau( 154) = (  -0.3751633   0.7936584   0.9542650  )
       155           O   tau( 155) = (   0.2499849   0.1444455   0.1526895  )
       156           O   tau( 156) = (   0.2502822   0.1439806   0.5525322  )
       157           O   tau( 157) = (   0.2500899   0.1445780   0.9542650  )
       158           O   tau( 158) = (   0.1249831   0.3608382   0.1527687  )
       159           O   tau( 159) = (   0.1259129   0.3613932   0.5533402  )
       160           O   tau( 160) = (   0.1251464   0.3609471   0.9543087  )
       161           O   tau( 161) = (   0.0000686   0.5772974   0.1526948  )
       162           O   tau( 162) = (  -0.0001769   0.5778192   0.5525243  )
       163           O   tau( 163) = (   0.0002158   0.5773466   0.9542809  )
       164           O   tau( 164) = (  -0.1250128   0.7938640   0.1528254  )
       165           O   tau( 165) = (  -0.1250219   0.7938692   0.5524178  )
       166           O   tau( 166) = (  -0.1250295   0.7938736   0.9538424  )
       167           O   tau( 167) = (   0.5000084   0.1444416   0.1526930  )
       168           O   tau( 168) = (   0.4996808   0.1439618   0.5525303  )
       169           O   tau( 169) = (   0.4999019   0.1445557   0.9542721  )
       170           O   tau( 170) = (   0.3750044   0.3611706   0.1548093  )
       171           O   tau( 171) = (   0.3750326   0.3620150   0.5559866  )
       172           O   tau( 172) = (   0.3750425   0.3625081   0.9497081  )
       173           O   tau( 173) = (   0.2502683   0.5771954   0.1548082  )
       174           O   tau( 174) = (   0.2509946   0.5767760   0.5559904  )
       175           O   tau( 175) = (   0.2514005   0.5765417   0.9497219  )
       176           O   tau( 176) = (   0.1250801   0.7938236   0.1526948  )
       177           O   tau( 177) = (   0.1245054   0.7937753   0.5525243  )
       178           O   tau( 178) = (   0.1251111   0.7936716   0.9542809  )
       179           O   tau( 179) = (   0.7500504   0.1443657   0.1528821  )
       180           O   tau( 180) = (   0.7497102   0.1441581   0.5530772  )
       181           O   tau( 181) = (   0.7500478   0.1443488   0.9536524  )
       182           O   tau( 182) = (   0.6250197   0.3608325   0.1527795  )
       183           O   tau( 183) = (   0.6241373   0.3613420   0.5533389  )
       184           O   tau( 184) = (   0.6248941   0.3609050   0.9543254  )
       185           O   tau( 185) = (   0.4997193   0.5771831   0.1548093  )
       186           O   tau( 186) = (   0.4990021   0.5767365   0.5559866  )
       187           O   tau( 187) = (   0.4985800   0.5764813   0.9497081  )
       188           O   tau( 188) = (   0.3749965   0.7938741   0.1527687  )
       189           O   tau( 189) = (   0.3749807   0.7927913   0.5533402  )
       190           O   tau( 190) = (   0.3749838   0.7936782   0.9543087  )
       191           Nb  tau( 191) = (   0.3749847   0.5051903   0.6064773  )

   Crystallographic axes

     site n.     atom                  positions (cryst. coord.)
         1           Zn  tau(   1) = (  0.1666074  0.0833926  0.1659105  )
         2           Zn  tau(   2) = (  0.1667361  0.0832638  0.5004909  )
         3           Zn  tau(   3) = (  0.1665901  0.0834099  0.8335804  )
         4           Zn  tau(   4) = (  0.1663872  0.3331857  0.1662750  )
         5           Zn  tau(   5) = (  0.1660056  0.3330077  0.5002473  )
         6           Zn  tau(   6) = (  0.1666930  0.3333328  0.8336196  )
         7           Zn  tau(   7) = (  0.1666024  0.5832045  0.1659133  )
         8           Zn  tau(   8) = (  0.1667587  0.5835075  0.5004846  )
         9           Zn  tau(   9) = (  0.1665841  0.5831699  0.8335972  )
        10           Zn  tau(  10) = (  0.1667637  0.8333813  0.1659204  )
        11           Zn  tau(  11) = (  0.1675750  0.8337992  0.5004563  )
        12           Zn  tau(  12) = (  0.1667907  0.8334014  0.8338215  )
        13           Zn  tau(  13) = (  0.4166187  0.0832363  0.1659204  )
        14           Zn  tau(  14) = (  0.4162008  0.0824250  0.5004563  )
        15           Zn  tau(  15) = (  0.4165986  0.0832093  0.8338215  )
        16           Zn  tau(  16) = (  0.4157161  0.3327910  0.1661394  )
        17           Zn  tau(  17) = (  0.4102482  0.3285120  0.5024090  )
        18           Zn  tau(  18) = (  0.4182562  0.3342039  0.8326794  )
        19           Zn  tau(  19) = (  0.4157087  0.5829226  0.1661355  )
        20           Zn  tau(  20) = (  0.4102418  0.5817678  0.5024117  )
        21           Zn  tau(  21) = (  0.4182031  0.5840620  0.8326979  )
        22           Zn  tau(  22) = (  0.4166109  0.8333891  0.1659197  )
        23           Zn  tau(  23) = (  0.4161966  0.8338034  0.5004635  )
        24           Zn  tau(  24) = (  0.4165777  0.8334223  0.8338345  )
        25           Zn  tau(  25) = (  0.6667955  0.0833976  0.1659133  )
        26           Zn  tau(  26) = (  0.6664925  0.0832413  0.5004846  )
        27           Zn  tau(  27) = (  0.6668301  0.0834159  0.8335972  )
        28           Zn  tau(  28) = (  0.6670851  0.3327891  0.1661416  )
        29           Zn  tau(  29) = (  0.6682879  0.3284877  0.5024122  )
        30           Zn  tau(  30) = (  0.6659865  0.3341656  0.8326946  )
        31           Zn  tau(  31) = (  0.6666631  0.5833369  0.1676052  )
        32           Zn  tau(  32) = (  0.6666597  0.5833403  0.8344834  )
        33           Zn  tau(  33) = (  0.6670774  0.8342913  0.1661355  )
        34           Zn  tau(  34) = (  0.6682322  0.8397582  0.5024117  )
        35           Zn  tau(  35) = (  0.6659380  0.8317969  0.8326979  )
        36           Zn  tau(  36) = (  0.9168143  0.0836128  0.1662750  )
        37           Zn  tau(  37) = (  0.9169923  0.0839944  0.5002473  )
        38           Zn  tau(  38) = (  0.9166672  0.0833070  0.8336196  )
        39           Zn  tau(  39) = (  0.9168182  0.3331818  0.1662774  )
        40           Zn  tau(  40) = (  0.9170310  0.3329690  0.5002697  )
        41           Zn  tau(  41) = (  0.9166922  0.3333078  0.8336326  )
        42           Zn  tau(  42) = (  0.9172109  0.5829149  0.1661416  )
        43           Zn  tau(  43) = (  0.9215123  0.5817121  0.5024122  )
        44           Zn  tau(  44) = (  0.9158344  0.5840135  0.8326946  )
        45           Zn  tau(  45) = (  0.9172090  0.8342839  0.1661394  )
        46           Zn  tau(  46) = (  0.9214880  0.8397518  0.5024090  )
        47           Zn  tau(  47) = (  0.9157961  0.8317438  0.8326794  )
        48           Zn  tau(  48) = (  0.0832946  0.1667054 -0.0000384  )
        49           Zn  tau(  49) = (  0.0833072  0.1666928  0.3329964  )
        50           Zn  tau(  50) = (  0.0834375  0.1665625  0.6670221  )
        51           Zn  tau(  51) = (  0.0832982  0.4165874 -0.0000311  )
        52           Zn  tau(  52) = (  0.0833128  0.4166194  0.3329971  )
        53           Zn  tau(  53) = (  0.0834930  0.4169175  0.6670342  )
        54           Zn  tau(  54) = (  0.0831697  0.6665522  0.9996563  )
        55           Zn  tau(  55) = (  0.0844924  0.6671233  0.3325096  )
        56           Zn  tau(  56) = (  0.0827057  0.6670425  0.6678224  )
        57           Zn  tau(  57) = (  0.0831586  0.9166184  0.9996505  )
        58           Zn  tau(  58) = (  0.0844835  0.9173769  0.3325092  )
        59           Zn  tau(  59) = (  0.0826597  0.9156550  0.6678233  )
        60           Zn  tau(  60) = (  0.3333816  0.1668414  0.9996505  )
        61           Zn  tau(  61) = (  0.3326231  0.1655165  0.3325092  )
        62           Zn  tau(  62) = (  0.3343450  0.1673403  0.6678233  )
        63           Zn  tau(  63) = (  0.3335244  0.4167656  0.9994992  )
        64           Zn  tau(  64) = (  0.3323159  0.4161641  0.3330258  )
        65           Zn  tau(  65) = (  0.3337840  0.4169320  0.6680156  )
        66           Zn  tau(  66) = (  0.3333715  0.6665494  0.9996619  )
        67           Zn  tau(  67) = (  0.3326227  0.6671274  0.3325082  )
        68           Zn  tau(  68) = (  0.3343422  0.6670773  0.6678273  )
        69           Zn  tau(  69) = (  0.3333269  0.9166731 -0.0000028  )
        70           Zn  tau(  70) = (  0.3333273  0.9166727  0.3325835  )
        71           Zn  tau(  71) = (  0.3332984  0.9167016  0.6671816  )
        72           Zn  tau(  72) = (  0.5834478  0.1668303  0.9996563  )
        73           Zn  tau(  73) = (  0.5828767  0.1655076  0.3325096  )
        74           Zn  tau(  74) = (  0.5829575  0.1672943  0.6678224  )
        75           Zn  tau(  75) = (  0.5833265  0.4166309  0.0008672  )
        76           Zn  tau(  76) = (  0.5818995  0.4137833  0.3297944  )
        77           Zn  tau(  77) = (  0.5903580  0.4305608  0.6630939  )
        78           Zn  tau(  78) = (  0.5833125  0.6666875  0.0008670  )
        79           Zn  tau(  79) = (  0.5818800  0.6681200  0.3297993  )
        80           Zn  tau(  80) = (  0.5902497  0.6597503  0.6631116  )
        81           Zn  tau(  81) = (  0.5834506  0.9166285  0.9996619  )
        82           Zn  tau(  82) = (  0.5828726  0.9173773  0.3325082  )
        83           Zn  tau(  83) = (  0.5829227  0.9156578  0.6678273  )
        84           Zn  tau(  84) = (  0.8334126  0.1667018 -0.0000311  )
        85           Zn  tau(  85) = (  0.8333806  0.1666872  0.3329971  )
        86           Zn  tau(  86) = (  0.8330825  0.1665070  0.6670342  )
        87           Zn  tau(  87) = (  0.8332394  0.4167606  0.9995159  )
        88           Zn  tau(  88) = (  0.8338502  0.4161498  0.3330260  )
        89           Zn  tau(  89) = (  0.8331771  0.4168229  0.6680409  )
        90           Zn  tau(  90) = (  0.8333691  0.6666735  0.0008672  )
        91           Zn  tau(  91) = (  0.8362167  0.6681005  0.3297944  )
        92           Zn  tau(  92) = (  0.8194392  0.6596420  0.6630939  )
        93           Zn  tau(  93) = (  0.8332344  0.9164756  0.9994992  )
        94           Zn  tau(  94) = (  0.8338359  0.9176841  0.3330258  )
        95           Zn  tau(  95) = (  0.8330680  0.9162160  0.6680156  )
        96           O   tau(  96) = (  0.1665367  0.0834633  0.2934177  )
        97           O   tau(  97) = (  0.1669937  0.0830063  0.6272495  )
        98           O   tau(  98) = (  0.1666343  0.0833657  0.9606375  )
        99           O   tau(  99) = (  0.1666430  0.3333152  0.2938047  )
       100           O   tau( 100) = (  0.1673972  0.3336929  0.6269634  )
       101           O   tau( 101) = (  0.1667801  0.3333820  0.9606488  )
       102           O   tau( 102) = (  0.1665308  0.5830640  0.2934211  )
       103           O   tau( 103) = (  0.1670218  0.5840101  0.6272437  )
       104           O   tau( 104) = (  0.1666289  0.5832512  0.9606497  )
       105           O   tau( 105) = (  0.1666142  0.8333076  0.2934022  )
       106           O   tau( 106) = (  0.1665074  0.8332695  0.6270153  )
       107           O   tau( 107) = (  0.1666623  0.8333272  0.9607575  )
       108           O   tau( 108) = (  0.4166924  0.0833858  0.2934022  )
       109           O   tau( 109) = (  0.4167305  0.0834925  0.6270153  )
       110           O   tau( 110) = (  0.4166728  0.0833376  0.9607575  )
       111           O   tau( 111) = (  0.4163844  0.3332039  0.2943425  )
       112           O   tau( 112) = (  0.4191153  0.3350794  0.6277304  )
       113           O   tau( 113) = (  0.4174621  0.3337862  0.9601518  )
       114           O   tau( 114) = (  0.4163690  0.5831685  0.2943354  )
       115           O   tau( 115) = (  0.4190473  0.5841030  0.6277349  )
       116           O   tau( 116) = (  0.4174486  0.5836775  0.9601643  )
       117           O   tau( 117) = (  0.4166872  0.8333128  0.2934014  )
       118           O   tau( 118) = (  0.4167020  0.8332980  0.6270209  )
       119           O   tau( 119) = (  0.4166658  0.8333342  0.9607679  )
       120           O   tau( 120) = (  0.6669360  0.0834692  0.2934211  )
       121           O   tau( 121) = (  0.6659899  0.0829782  0.6272437  )
       122           O   tau( 122) = (  0.6667488  0.0833711  0.9606497  )
       123           O   tau( 123) = (  0.6668363  0.3332014  0.2943432  )
       124           O   tau( 124) = (  0.6660291  0.3349729  0.6277332  )
       125           O   tau( 125) = (  0.6663464  0.3337689  0.9601630  )
       126           O   tau( 126) = (  0.6666640  0.5833360  0.2981955  )
       127           O   tau( 127) = (  0.6666692  0.5833308  0.9611203  )
       128           O   tau( 128) = (  0.6668315  0.8336310  0.2943354  )
       129           O   tau( 129) = (  0.6658970  0.8309527  0.6277349  )
       130           O   tau( 130) = (  0.6663225  0.8325514  0.9601643  )
       131           O   tau( 131) = (  0.9166848  0.0833570  0.2938047  )
       132           O   tau( 132) = (  0.9163071  0.0826028  0.6269634  )
       133           O   tau( 133) = (  0.9166180  0.0832199  0.9606488  )
       134           O   tau( 134) = (  0.9166908  0.3333092  0.2938053  )
       135           O   tau( 135) = (  0.9163703  0.3336297  0.6269751  )
       136           O   tau( 136) = (  0.9166245  0.3333755  0.9606598  )
       137           O   tau( 137) = (  0.9167986  0.5831637  0.2943432  )
       138           O   tau( 138) = (  0.9150271  0.5839709  0.6277332  )
       139           O   tau( 139) = (  0.9162311  0.5836536  0.9601630  )
       140           O   tau( 140) = (  0.9167961  0.8336156  0.2943425  )
       141           O   tau( 141) = (  0.9149206  0.8308847  0.6277304  )
       142           O   tau( 142) = (  0.9162138  0.8325379  0.9601518  )
       143           O   tau( 143) = (  0.0832995  0.1667005  0.1272431  )
       144           O   tau( 144) = (  0.0835078  0.1664922  0.4603437  )
       145           O   tau( 145) = (  0.0833021  0.1666979  0.7937449  )
       146           O   tau( 146) = (  0.0833009  0.4166000  0.1272482  )
       147           O   tau( 147) = (  0.0835406  0.4170601  0.4603423  )
       148           O   tau( 148) = (  0.0833203  0.4166124  0.7937526  )
       149           O   tau( 149) = (  0.0832132  0.6665982  0.1270908  )
       150           O   tau( 150) = (  0.0837672  0.6672028  0.4598870  )
       151           O   tau( 151) = (  0.0830814  0.6666388  0.7942684  )
       152           O   tau( 152) = (  0.0832087  0.9166194  0.1270879  )
       153           O   tau( 153) = (  0.0837455  0.9165905  0.4598887  )
       154           O   tau( 154) = (  0.0830556  0.9164379  0.7942625  )
       155           O   tau( 155) = (  0.3333806  0.1667913  0.1270879  )
       156           O   tau( 156) = (  0.3334095  0.1662545  0.4598887  )
       157           O   tau( 157) = (  0.3335621  0.1669444  0.7942625  )
       158           O   tau( 158) = (  0.3333131  0.4166601  0.1271538  )
       159           O   tau( 159) = (  0.3345634  0.4173010  0.4605612  )
       160           O   tau( 160) = (  0.3335393  0.4167859  0.7942989  )
       161           O   tau( 161) = (  0.3333713  0.6666056  0.1270923  )
       162           O   tau( 162) = (  0.3334271  0.6672082  0.4598821  )
       163           O   tau( 163) = (  0.3335469  0.6666624  0.7942758  )
       164           O   tau( 164) = (  0.3333248  0.9166752  0.1272010  )
       165           O   tau( 165) = (  0.3333187  0.9166813  0.4597934  )
       166           O   tau( 166) = (  0.3333136  0.9166864  0.7939108  )
       167           O   tau( 167) = (  0.5834018  0.1667868  0.1270908  )
       168           O   tau( 168) = (  0.5827972  0.1662328  0.4598870  )
       169           O   tau( 169) = (  0.5833612  0.1669186  0.7942684  )
       170           O   tau( 170) = (  0.5835263  0.4170439  0.1288523  )
       171           O   tau( 171) = (  0.5840420  0.4180189  0.4627639  )
       172           O   tau( 172) = (  0.5843367  0.4185883  0.7904697  )
       173           O   tau( 173) = (  0.5835122  0.6664878  0.1288514  )
       174           O   tau( 174) = (  0.5839964  0.6660036  0.4627670  )
       175           O   tau( 175) = (  0.5842670  0.6657330  0.7904812  )
       176           O   tau( 176) = (  0.5833944  0.9166287  0.1270923  )
       177           O   tau( 177) = (  0.5827918  0.9165729  0.4598821  )
       178           O   tau( 178) = (  0.5833376  0.9164531  0.7942758  )
       179           O   tau( 179) = (  0.8334000  0.1666991  0.1272482  )
       180           O   tau( 180) = (  0.8329399  0.1664594  0.4603423  )
       181           O   tau( 181) = (  0.8333876  0.1666797  0.7937526  )
       182           O   tau( 182) = (  0.8333464  0.4166536  0.1271628  )
       183           O   tau( 183) = (  0.8327582  0.4172418  0.4605601  )
       184           O   tau( 184) = (  0.8332627  0.4167373  0.7943128  )
       185           O   tau( 185) = (  0.8329561  0.6664737  0.1288523  )
       186           O   tau( 186) = (  0.8319811  0.6659580  0.4627639  )
       187           O   tau( 187) = (  0.8314117  0.6656633  0.7904697  )
       188           O   tau( 188) = (  0.8333399  0.9166869  0.1271538  )
       189           O   tau( 189) = (  0.8326990  0.9154366  0.4605612  )
       190           O   tau( 190) = (  0.8332141  0.9164607  0.7942989  )
       191           Nb  tau( 191) = (  0.6666565  0.5833435  0.5047887  )

     number of k points=     1  Gaussian smearing, width (Ry)=  0.0001
                       cart. coord. in units 2pi/alat
        k(    1) = (   0.0000000   0.0000000   0.0000000), wk =   1.0000000

                       cryst. coord.
        k(    1) = (   0.0000000   0.0000000   0.0000000), wk =   1.0000000

     Dense  grid:   744516 G-vectors     FFT dimensions: ( 144, 144, 180)

     Dynamical RAM for                 wfc:      27.95 MB

     Dynamical RAM for     wfc (w. buffer):      27.95 MB

     Dynamical RAM for                 EXX:     139.68 MB

     Dynamical RAM for           str. fact:       0.71 MB

     Dynamical RAM for           local pot:       0.00 MB

     Dynamical RAM for          nlocal pot:      55.20 MB

     Dynamical RAM for                qrad:       5.74 MB

     Dynamical RAM for          rho,v,vnew:       3.91 MB

     Dynamical RAM for               rhoin:       1.30 MB

     Dynamical RAM for            rho*nmix:       5.68 MB

     Dynamical RAM for           G-vectors:       0.75 MB

     Dynamical RAM for          h,s,v(r/c):     145.35 MB

     Dynamical RAM for          <psi|beta>:      23.92 MB

     Dynamical RAM for                 psi:      55.91 MB

     Dynamical RAM for                hpsi:      55.91 MB

     Dynamical RAM for      wfcinit/wfcrot:     100.57 MB

     Estimated static dynamical RAM per process >     238.99 MB

     Estimated max dynamical RAM per process >     525.76 MB

     Estimated total dynamical RAM >     261.46 GB
     EXX: ACE will be initialized later
     Generating pointlists ...
     new r_m :   0.4125 (alat units) 10.1293 (a.u.) for type    1
     new r_m :   0.0617 (alat units)  1.5148 (a.u.) for type    2
     new r_m :   0.0617 (alat units)  1.5148 (a.u.) for type    3
     new r_m :   0.0626 (alat units)  1.5377 (a.u.) for type    4

     Initial potential from superposition of free atoms

     starting charge    2482.9854, renormalised to    2482.0000
     Starting wfcs are 1340 randomized atomic wfcs

     total cpu time spent up to now is        4.5 secs

     Self-consistent Calculation

     iteration #  1     ecut=    80.00 Ry     beta= 0.40
     Davidson diagonalization with overlap

---- Real-time Memory Report at c_bands before calling an iterative solver
           350 MiB given to the printing process from OS
             0 MiB allocation reported by mallinfo(arena+hblkhd)
        149592 MiB available memory on the node where the printing process lives
------------------
     ethr =  1.00E-02,  avg # of iterations =  2.0

     total cpu time spent up to now is       16.8 secs

     total energy              =  -41174.01248339 Ry
     estimated scf accuracy    <      45.07246911 Ry

     total magnetization       =     2.00 Bohr mag/cell
     absolute magnetization    =     3.91 Bohr mag/cell

     iteration #  2     ecut=    80.00 Ry     beta= 0.40
     Davidson diagonalization with overlap

---- Real-time Memory Report at c_bands before calling an iterative solver
           523 MiB given to the printing process from OS
             0 MiB allocation reported by mallinfo(arena+hblkhd)
        148600 MiB available memory on the node where the printing process lives
------------------
     ethr =  1.82E-03,  avg # of iterations =  2.5

     total cpu time spent up to now is       33.9 secs

     total energy              =  -41186.89928441 Ry
     estimated scf accuracy    <       4.23033442 Ry

     total magnetization       =     2.00 Bohr mag/cell
     absolute magnetization    =     4.04 Bohr mag/cell

     iteration #  3     ecut=    80.00 Ry     beta= 0.40
     Davidson diagonalization with overlap

---- Real-time Memory Report at c_bands before calling an iterative solver
           549 MiB given to the printing process from OS
             0 MiB allocation reported by mallinfo(arena+hblkhd)
        148015 MiB available memory on the node where the printing process lives
------------------
     ethr =  1.70E-04,  avg # of iterations =  3.5

     total cpu time spent up to now is       54.5 secs

     total energy              =  -41187.12753562 Ry
     estimated scf accuracy    <       2.11555543 Ry

     total magnetization       =    -0.00 Bohr mag/cell
     absolute magnetization    =     1.78 Bohr mag/cell

     iteration #  4     ecut=    80.00 Ry     beta= 0.40
     Davidson diagonalization with overlap

---- Real-time Memory Report at c_bands before calling an iterative solver
           549 MiB given to the printing process from OS
             0 MiB allocation reported by mallinfo(arena+hblkhd)
        148007 MiB available memory on the node where the printing process lives
------------------
     ethr =  8.52E-05,  avg # of iterations = 10.0

     total cpu time spent up to now is       83.9 secs

     total energy              =  -41187.52015133 Ry
     estimated scf accuracy    <       0.85257545 Ry

     total magnetization       =     2.00 Bohr mag/cell
     absolute magnetization    =     3.17 Bohr mag/cell

     iteration #  5     ecut=    80.00 Ry     beta= 0.40
     Davidson diagonalization with overlap

---- Real-time Memory Report at c_bands before calling an iterative solver
           553 MiB given to the printing process from OS
             0 MiB allocation reported by mallinfo(arena+hblkhd)
        148009 MiB available memory on the node where the printing process lives
------------------
     ethr =  3.44E-05,  avg # of iterations =  6.0

     total cpu time spent up to now is      112.9 secs

     total energy              =  -41187.60389363 Ry
     estimated scf accuracy    <       0.27272349 Ry

     total magnetization       =     2.00 Bohr mag/cell
     absolute magnetization    =     2.45 Bohr mag/cell

     iteration #  6     ecut=    80.00 Ry     beta= 0.40
     Davidson diagonalization with overlap

---- Real-time Memory Report at c_bands before calling an iterative solver
           558 MiB given to the printing process from OS
             0 MiB allocation reported by mallinfo(arena+hblkhd)
        147993 MiB available memory on the node where the printing process lives
------------------
     ethr =  1.10E-05,  avg # of iterations =  8.5

     total cpu time spent up to now is      146.0 secs

     total energy              =  -41187.60014660 Ry
     estimated scf accuracy    <       0.09769451 Ry

     total magnetization       =     2.00 Bohr mag/cell
     absolute magnetization    =     2.35 Bohr mag/cell

     iteration #  7     ecut=    80.00 Ry     beta= 0.40
     Davidson diagonalization with overlap

---- Real-time Memory Report at c_bands before calling an iterative solver
           563 MiB given to the printing process from OS
             0 MiB allocation reported by mallinfo(arena+hblkhd)
        147988 MiB available memory on the node where the printing process lives
------------------
     ethr =  3.94E-06,  avg # of iterations =  8.0

     total cpu time spent up to now is      186.4 secs

     total energy              =  -41187.61083572 Ry
     estimated scf accuracy    <       0.09438155 Ry

     total magnetization       =     2.00 Bohr mag/cell
     absolute magnetization    =     2.25 Bohr mag/cell

     iteration #  8     ecut=    80.00 Ry     beta= 0.40
     Davidson diagonalization with overlap

---- Real-time Memory Report at c_bands before calling an iterative solver
           566 MiB given to the printing process from OS
             0 MiB allocation reported by mallinfo(arena+hblkhd)
        148003 MiB available memory on the node where the printing process lives
------------------
     ethr =  3.80E-06,  avg # of iterations =  7.0

     total cpu time spent up to now is      215.2 secs

     total energy              =  -41187.60042150 Ry
     estimated scf accuracy    <       0.40880858 Ry

     total magnetization       =     0.00 Bohr mag/cell
     absolute magnetization    =     0.78 Bohr mag/cell

     iteration #  9     ecut=    80.00 Ry     beta= 0.40
     Davidson diagonalization with overlap

---- Real-time Memory Report at c_bands before calling an iterative solver
           569 MiB given to the printing process from OS
             0 MiB allocation reported by mallinfo(arena+hblkhd)
        148003 MiB available memory on the node where the printing process lives
------------------
     ethr =  3.80E-06,  avg # of iterations =  6.0

     total cpu time spent up to now is      242.5 secs

     total energy              =  -41187.61788008 Ry
     estimated scf accuracy    <       0.10328483 Ry

     total magnetization       =     2.00 Bohr mag/cell
     absolute magnetization    =     2.17 Bohr mag/cell

     iteration # 10     ecut=    80.00 Ry     beta= 0.40
     Davidson diagonalization with overlap

---- Real-time Memory Report at c_bands before calling an iterative solver
           571 MiB given to the printing process from OS
             0 MiB allocation reported by mallinfo(arena+hblkhd)
        148002 MiB available memory on the node where the printing process lives
------------------
     ethr =  3.80E-06,  avg # of iterations =  1.5

     total cpu time spent up to now is      254.1 secs

     total energy              =  -41187.61799222 Ry
     estimated scf accuracy    <       0.07520326 Ry

     total magnetization       =     2.00 Bohr mag/cell
     absolute magnetization    =     2.13 Bohr mag/cell

     iteration # 11     ecut=    80.00 Ry     beta= 0.40
     Davidson diagonalization with overlap

---- Real-time Memory Report at c_bands before calling an iterative solver
           573 MiB given to the printing process from OS
             0 MiB allocation reported by mallinfo(arena+hblkhd)
        148000 MiB available memory on the node where the printing process lives
------------------
     ethr =  3.03E-06,  avg # of iterations =  1.0

     total cpu time spent up to now is      263.3 secs

     total energy              =  -41187.61826579 Ry
     estimated scf accuracy    <       0.01886089 Ry

     total magnetization       =     2.00 Bohr mag/cell
     absolute magnetization    =     2.13 Bohr mag/cell

     iteration # 12     ecut=    80.00 Ry     beta= 0.40
     Davidson diagonalization with overlap

---- Real-time Memory Report at c_bands before calling an iterative solver
           574 MiB given to the printing process from OS
             0 MiB allocation reported by mallinfo(arena+hblkhd)
        148001 MiB available memory on the node where the printing process lives
------------------
     ethr =  7.60E-07,  avg # of iterations =  1.0

     total cpu time spent up to now is      272.5 secs

     total energy              =  -41187.61836699 Ry
     estimated scf accuracy    <       0.00695404 Ry

     total magnetization       =     2.00 Bohr mag/cell
     absolute magnetization    =     2.11 Bohr mag/cell

     iteration # 13     ecut=    80.00 Ry     beta= 0.40
     Davidson diagonalization with overlap

---- Real-time Memory Report at c_bands before calling an iterative solver
           576 MiB given to the printing process from OS
             0 MiB allocation reported by mallinfo(arena+hblkhd)
        147995 MiB available memory on the node where the printing process lives
------------------
     ethr =  2.80E-07,  avg # of iterations =  1.5

     total cpu time spent up to now is      284.1 secs

     total energy              =  -41187.61837654 Ry
     estimated scf accuracy    <       0.01053866 Ry

     total magnetization       =     2.00 Bohr mag/cell
     absolute magnetization    =     2.12 Bohr mag/cell

     iteration # 14     ecut=    80.00 Ry     beta= 0.40
     Davidson diagonalization with overlap

---- Real-time Memory Report at c_bands before calling an iterative solver
           578 MiB given to the printing process from OS
             0 MiB allocation reported by mallinfo(arena+hblkhd)
        147996 MiB available memory on the node where the printing process lives
------------------
     ethr =  2.80E-07,  avg # of iterations =  1.0

     total cpu time spent up to now is      293.4 secs

     total energy              =  -41187.61843066 Ry
     estimated scf accuracy    <       0.00193270 Ry

     total magnetization       =     2.00 Bohr mag/cell
     absolute magnetization    =     2.11 Bohr mag/cell

     iteration # 15     ecut=    80.00 Ry     beta= 0.40
     Davidson diagonalization with overlap

---- Real-time Memory Report at c_bands before calling an iterative solver
           578 MiB given to the printing process from OS
             0 MiB allocation reported by mallinfo(arena+hblkhd)
        148004 MiB available memory on the node where the printing process lives
------------------
     ethr =  7.79E-08,  avg # of iterations =  1.5

     total cpu time spent up to now is      304.9 secs

     total energy              =  -41187.61765653 Ry
     estimated scf accuracy    <       0.07005999 Ry

     total magnetization       =     2.00 Bohr mag/cell
     absolute magnetization    =     2.15 Bohr mag/cell

     iteration # 16     ecut=    80.00 Ry     beta= 0.40
     Davidson diagonalization with overlap

---- Real-time Memory Report at c_bands before calling an iterative solver
           580 MiB given to the printing process from OS
             0 MiB allocation reported by mallinfo(arena+hblkhd)
        148004 MiB available memory on the node where the printing process lives
------------------
     ethr =  7.79E-08,  avg # of iterations =  2.5

     total cpu time spent up to now is      318.3 secs

     total energy              =  -41187.61889889 Ry
     estimated scf accuracy    <       0.02737573 Ry

     total magnetization       =     2.00 Bohr mag/cell
     absolute magnetization    =     2.13 Bohr mag/cell

     iteration # 17     ecut=    80.00 Ry     beta= 0.40
     Davidson diagonalization with overlap

---- Real-time Memory Report at c_bands before calling an iterative solver
           582 MiB given to the printing process from OS
             0 MiB allocation reported by mallinfo(arena+hblkhd)
        148001 MiB available memory on the node where the printing process lives
------------------
     ethr =  7.79E-08,  avg # of iterations =  1.5

     total cpu time spent up to now is      329.9 secs

     total energy              =  -41187.61874760 Ry
     estimated scf accuracy    <       0.02807929 Ry

     total magnetization       =     2.00 Bohr mag/cell
     absolute magnetization    =     2.13 Bohr mag/cell

     iteration # 18     ecut=    80.00 Ry     beta= 0.40
     Davidson diagonalization with overlap

---- Real-time Memory Report at c_bands before calling an iterative solver
           582 MiB given to the printing process from OS
             0 MiB allocation reported by mallinfo(arena+hblkhd)
        148003 MiB available memory on the node where the printing process lives
------------------
     ethr =  7.79E-08,  avg # of iterations =  1.0

     total cpu time spent up to now is      339.1 secs

     total energy              =  -41187.61866433 Ry
     estimated scf accuracy    <       0.02798977 Ry

     total magnetization       =     2.00 Bohr mag/cell
     absolute magnetization    =     2.14 Bohr mag/cell

     iteration # 19     ecut=    80.00 Ry     beta= 0.40
     Davidson diagonalization with overlap

---- Real-time Memory Report at c_bands before calling an iterative solver
           584 MiB given to the printing process from OS
             0 MiB allocation reported by mallinfo(arena+hblkhd)
        148003 MiB available memory on the node where the printing process lives
------------------
     ethr =  7.79E-08,  avg # of iterations =  1.0

     total cpu time spent up to now is      348.3 secs

     total energy              =  -41187.61860656 Ry
     estimated scf accuracy    <       0.02754062 Ry

     total magnetization       =     2.00 Bohr mag/cell
     absolute magnetization    =     2.14 Bohr mag/cell

     iteration # 20     ecut=    80.00 Ry     beta= 0.40
     Davidson diagonalization with overlap

---- Real-time Memory Report at c_bands before calling an iterative solver
           585 MiB given to the printing process from OS
             0 MiB allocation reported by mallinfo(arena+hblkhd)
        148003 MiB available memory on the node where the printing process lives
------------------
     ethr =  7.79E-08,  avg # of iterations =  1.0

     total cpu time spent up to now is      357.5 secs

     total energy              =  -41187.61869789 Ry
     estimated scf accuracy    <       0.02613037 Ry

     total magnetization       =     2.00 Bohr mag/cell
     absolute magnetization    =     2.14 Bohr mag/cell

     iteration # 21     ecut=    80.00 Ry     beta= 0.40
     Davidson diagonalization with overlap

---- Real-time Memory Report at c_bands before calling an iterative solver
           586 MiB given to the printing process from OS
             0 MiB allocation reported by mallinfo(arena+hblkhd)
        148010 MiB available memory on the node where the printing process lives
------------------
     ethr =  7.79E-08,  avg # of iterations =  1.0

     total cpu time spent up to now is      366.8 secs

     total energy              =  -41187.61851861 Ry
     estimated scf accuracy    <       0.02705179 Ry

     total magnetization       =     2.00 Bohr mag/cell
     absolute magnetization    =     2.14 Bohr mag/cell

     iteration # 22     ecut=    80.00 Ry     beta= 0.40
     Davidson diagonalization with overlap

---- Real-time Memory Report at c_bands before calling an iterative solver
           587 MiB given to the printing process from OS
             0 MiB allocation reported by mallinfo(arena+hblkhd)
        148012 MiB available memory on the node where the printing process lives
------------------
     ethr =  7.79E-08,  avg # of iterations =  1.0

     total cpu time spent up to now is      376.1 secs

     total energy              =  -41187.61852883 Ry
     estimated scf accuracy    <       0.02271095 Ry

     total magnetization       =     2.00 Bohr mag/cell
     absolute magnetization    =     2.13 Bohr mag/cell

     iteration # 23     ecut=    80.00 Ry     beta= 0.40
     Davidson diagonalization with overlap

---- Real-time Memory Report at c_bands before calling an iterative solver
           589 MiB given to the printing process from OS
             0 MiB allocation reported by mallinfo(arena+hblkhd)
        148006 MiB available memory on the node where the printing process lives
------------------
     ethr =  7.79E-08,  avg # of iterations =  1.0

     total cpu time spent up to now is      385.4 secs

     total energy              =  -41187.61855310 Ry
     estimated scf accuracy    <       0.02301121 Ry

     total magnetization       =     2.00 Bohr mag/cell
     absolute magnetization    =     2.13 Bohr mag/cell

     iteration # 24     ecut=    80.00 Ry     beta= 0.40
     Davidson diagonalization with overlap

---- Real-time Memory Report at c_bands before calling an iterative solver
           591 MiB given to the printing process from OS
             0 MiB allocation reported by mallinfo(arena+hblkhd)
        148007 MiB available memory on the node where the printing process lives
------------------
     ethr =  7.79E-08,  avg # of iterations =  1.0

     total cpu time spent up to now is      394.6 secs

     total energy              =  -41187.61564600 Ry
     estimated scf accuracy    <       0.02378294 Ry

     total magnetization       =     2.00 Bohr mag/cell
     absolute magnetization    =     2.13 Bohr mag/cell

     iteration # 25     ecut=    80.00 Ry     beta= 0.40
     Davidson diagonalization with overlap

---- Real-time Memory Report at c_bands before calling an iterative solver
           592 MiB given to the printing process from OS
             0 MiB allocation reported by mallinfo(arena+hblkhd)
        147993 MiB available memory on the node where the printing process lives
------------------
     ethr =  7.79E-08,  avg # of iterations =  5.0

     total cpu time spent up to now is      418.4 secs

     total energy              =  -41187.61983493 Ry
     estimated scf accuracy    <       0.09984466 Ry

     total magnetization       =     2.00 Bohr mag/cell
     absolute magnetization    =     2.17 Bohr mag/cell

     iteration # 26     ecut=    80.00 Ry     beta= 0.40
     Davidson diagonalization with overlap

---- Real-time Memory Report at c_bands before calling an iterative solver
           593 MiB given to the printing process from OS
             0 MiB allocation reported by mallinfo(arena+hblkhd)
        147999 MiB available memory on the node where the printing process lives
------------------
     ethr =  7.79E-08,  avg # of iterations =  4.0

     total cpu time spent up to now is      437.0 secs

     total energy              =  -41187.61853054 Ry
     estimated scf accuracy    <       0.08021284 Ry

     total magnetization       =     2.00 Bohr mag/cell
     absolute magnetization    =     2.17 Bohr mag/cell

     iteration # 27     ecut=    80.00 Ry     beta= 0.40
     Davidson diagonalization with overlap

---- Real-time Memory Report at c_bands before calling an iterative solver
           597 MiB given to the printing process from OS
             0 MiB allocation reported by mallinfo(arena+hblkhd)
        147999 MiB available memory on the node where the printing process lives
------------------
     ethr =  7.79E-08,  avg # of iterations =  3.0

     total cpu time spent up to now is      452.4 secs

     total energy              =  -41187.61856445 Ry
     estimated scf accuracy    <       0.05620475 Ry

     total magnetization       =     2.00 Bohr mag/cell
     absolute magnetization    =     2.15 Bohr mag/cell

     iteration # 28     ecut=    80.00 Ry     beta= 0.40
     Davidson diagonalization with overlap

---- Real-time Memory Report at c_bands before calling an iterative solver
           598 MiB given to the printing process from OS
             0 MiB allocation reported by mallinfo(arena+hblkhd)
        148006 MiB available memory on the node where the printing process lives
------------------
     ethr =  7.79E-08,  avg # of iterations =  1.0

     total cpu time spent up to now is      461.7 secs

     total energy              =  -41187.61858600 Ry
     estimated scf accuracy    <       0.04655307 Ry

     total magnetization       =     2.00 Bohr mag/cell
     absolute magnetization    =     2.15 Bohr mag/cell

     iteration # 29     ecut=    80.00 Ry     beta= 0.40
     Davidson diagonalization with overlap

---- Real-time Memory Report at c_bands before calling an iterative solver
           599 MiB given to the printing process from OS
             0 MiB allocation reported by mallinfo(arena+hblkhd)
        147999 MiB available memory on the node where the printing process lives
------------------
     ethr =  7.79E-08,  avg # of iterations =  1.0

     total cpu time spent up to now is      470.9 secs

     total energy              =  -41187.61836801 Ry
     estimated scf accuracy    <       0.05195675 Ry

     total magnetization       =     2.00 Bohr mag/cell
     absolute magnetization    =     2.15 Bohr mag/cell

     iteration # 30     ecut=    80.00 Ry     beta= 0.40
     Davidson diagonalization with overlap

---- Real-time Memory Report at c_bands before calling an iterative solver
           600 MiB given to the printing process from OS
             0 MiB allocation reported by mallinfo(arena+hblkhd)
        148000 MiB available memory on the node where the printing process lives
------------------
     ethr =  7.79E-08,  avg # of iterations =  1.0

     total cpu time spent up to now is      480.1 secs

     total energy              =  -41187.61849360 Ry
     estimated scf accuracy    <       0.01306309 Ry

     total magnetization       =     2.00 Bohr mag/cell
     absolute magnetization    =     2.13 Bohr mag/cell

     iteration # 31     ecut=    80.00 Ry     beta= 0.40
     Davidson diagonalization with overlap

---- Real-time Memory Report at c_bands before calling an iterative solver
           601 MiB given to the printing process from OS
             0 MiB allocation reported by mallinfo(arena+hblkhd)
        148000 MiB available memory on the node where the printing process lives
------------------
     ethr =  7.79E-08,  avg # of iterations =  1.0

     total cpu time spent up to now is      489.4 secs

     total energy              =  -41187.61846393 Ry
     estimated scf accuracy    <       0.00532148 Ry

     total magnetization       =     2.00 Bohr mag/cell
     absolute magnetization    =     2.13 Bohr mag/cell

     iteration # 32     ecut=    80.00 Ry     beta= 0.40
     Davidson diagonalization with overlap

---- Real-time Memory Report at c_bands before calling an iterative solver
           603 MiB given to the printing process from OS
             0 MiB allocation reported by mallinfo(arena+hblkhd)
        147984 MiB available memory on the node where the printing process lives
------------------
     ethr =  7.79E-08,  avg # of iterations =  1.0

     total cpu time spent up to now is      498.7 secs

     total energy              =  -41187.61854704 Ry
     estimated scf accuracy    <       0.02923740 Ry

     total magnetization       =     2.00 Bohr mag/cell
     absolute magnetization    =     2.14 Bohr mag/cell

     iteration # 33     ecut=    80.00 Ry     beta= 0.40
     Davidson diagonalization with overlap

---- Real-time Memory Report at c_bands before calling an iterative solver
           604 MiB given to the printing process from OS
             0 MiB allocation reported by mallinfo(arena+hblkhd)
        147980 MiB available memory on the node where the printing process lives
------------------
     ethr =  7.79E-08,  avg # of iterations =  1.0

     total cpu time spent up to now is      508.0 secs

     total energy              =  -41187.61890047 Ry
     estimated scf accuracy    <       0.04499189 Ry

     total magnetization       =     2.00 Bohr mag/cell
     absolute magnetization    =     2.15 Bohr mag/cell

     iteration # 34     ecut=    80.00 Ry     beta= 0.40
     Davidson diagonalization with overlap

---- Real-time Memory Report at c_bands before calling an iterative solver
           605 MiB given to the printing process from OS
             0 MiB allocation reported by mallinfo(arena+hblkhd)
        148002 MiB available memory on the node where the printing process lives
------------------
     ethr =  7.79E-08,  avg # of iterations =  1.5

     total cpu time spent up to now is      519.5 secs

     total energy              =  -41187.61871252 Ry
     estimated scf accuracy    <       0.07138818 Ry

     total magnetization       =     2.00 Bohr mag/cell
     absolute magnetization    =     2.17 Bohr mag/cell

     iteration # 35     ecut=    80.00 Ry     beta= 0.40
     Davidson diagonalization with overlap

---- Real-time Memory Report at c_bands before calling an iterative solver
           607 MiB given to the printing process from OS
             0 MiB allocation reported by mallinfo(arena+hblkhd)
        148012 MiB available memory on the node where the printing process lives
------------------
     ethr =  7.79E-08,  avg # of iterations =  1.0

     total cpu time spent up to now is      528.8 secs

     total energy              =  -41187.61873790 Ry
     estimated scf accuracy    <       0.06639144 Ry

     total magnetization       =     2.00 Bohr mag/cell
     absolute magnetization    =     2.17 Bohr mag/cell

     iteration # 36     ecut=    80.00 Ry     beta= 0.40
     Davidson diagonalization with overlap

---- Real-time Memory Report at c_bands before calling an iterative solver
           607 MiB given to the printing process from OS
             0 MiB allocation reported by mallinfo(arena+hblkhd)
        148018 MiB available memory on the node where the printing process lives
------------------
     ethr =  7.79E-08,  avg # of iterations =  1.0

     total cpu time spent up to now is      538.1 secs

     total energy              =  -41187.61866207 Ry
     estimated scf accuracy    <       0.06732189 Ry

     total magnetization       =     2.00 Bohr mag/cell
     absolute magnetization    =     2.17 Bohr mag/cell

     iteration # 37     ecut=    80.00 Ry     beta= 0.40
     Davidson diagonalization with overlap

---- Real-time Memory Report at c_bands before calling an iterative solver
           609 MiB given to the printing process from OS
             0 MiB allocation reported by mallinfo(arena+hblkhd)
        148019 MiB available memory on the node where the printing process lives
------------------
     ethr =  7.79E-08,  avg # of iterations =  1.0

     total cpu time spent up to now is      547.3 secs

     total energy              =  -41187.61862508 Ry
     estimated scf accuracy    <       0.06584069 Ry

     total magnetization       =     2.00 Bohr mag/cell
     absolute magnetization    =     2.17 Bohr mag/cell

     iteration # 38     ecut=    80.00 Ry     beta= 0.40
     Davidson diagonalization with overlap

---- Real-time Memory Report at c_bands before calling an iterative solver
           610 MiB given to the printing process from OS
             0 MiB allocation reported by mallinfo(arena+hblkhd)
        148019 MiB available memory on the node where the printing process lives
------------------
     ethr =  7.79E-08,  avg # of iterations =  1.0

     total cpu time spent up to now is      556.6 secs

     total energy              =  -41187.61859386 Ry
     estimated scf accuracy    <       0.06434329 Ry

     total magnetization       =     2.00 Bohr mag/cell
     absolute magnetization    =     2.17 Bohr mag/cell

     iteration # 39     ecut=    80.00 Ry     beta= 0.40
     Davidson diagonalization with overlap

---- Real-time Memory Report at c_bands before calling an iterative solver
           611 MiB given to the printing process from OS
             0 MiB allocation reported by mallinfo(arena+hblkhd)
        148026 MiB available memory on the node where the printing process lives
------------------
     ethr =  7.79E-08,  avg # of iterations =  1.0

     total cpu time spent up to now is      565.8 secs

     total energy              =  -41187.61848051 Ry
     estimated scf accuracy    <       0.05697448 Ry

     total magnetization       =     2.00 Bohr mag/cell
     absolute magnetization    =     2.16 Bohr mag/cell

     iteration # 40     ecut=    80.00 Ry     beta= 0.40
     Davidson diagonalization with overlap

---- Real-time Memory Report at c_bands before calling an iterative solver
           612 MiB given to the printing process from OS
             0 MiB allocation reported by mallinfo(arena+hblkhd)
        148026 MiB available memory on the node where the printing process lives
------------------
     ethr =  7.79E-08,  avg # of iterations =  1.5

     total cpu time spent up to now is      577.2 secs

     total energy              =  -41187.61885644 Ry
     estimated scf accuracy    <       0.02735943 Ry

     total magnetization       =     2.00 Bohr mag/cell
     absolute magnetization    =     2.14 Bohr mag/cell

     iteration # 41     ecut=    80.00 Ry     beta= 0.40
     Davidson diagonalization with overlap

---- Real-time Memory Report at c_bands before calling an iterative solver
           613 MiB given to the printing process from OS
             0 MiB allocation reported by mallinfo(arena+hblkhd)
        148034 MiB available memory on the node where the printing process lives
------------------
     ethr =  7.79E-08,  avg # of iterations =  3.0

     total cpu time spent up to now is      592.7 secs

     total energy              =  -41187.61973037 Ry
     estimated scf accuracy    <       0.06878457 Ry

     total magnetization       =     2.00 Bohr mag/cell
     absolute magnetization    =     2.16 Bohr mag/cell

     iteration # 42     ecut=    80.00 Ry     beta= 0.40
     Davidson diagonalization with overlap

---- Real-time Memory Report at c_bands before calling an iterative solver
           614 MiB given to the printing process from OS
             0 MiB allocation reported by mallinfo(arena+hblkhd)
        148029 MiB available memory on the node where the printing process lives
------------------
     ethr =  7.79E-08,  avg # of iterations =  2.0

     total cpu time spent up to now is      604.2 secs

     total energy              =  -41187.61852104 Ry
     estimated scf accuracy    <       0.07721400 Ry

     total magnetization       =     2.00 Bohr mag/cell
     absolute magnetization    =     2.17 Bohr mag/cell

     iteration # 43     ecut=    80.00 Ry     beta= 0.40
     Davidson diagonalization with overlap

---- Real-time Memory Report at c_bands before calling an iterative solver
           615 MiB given to the printing process from OS
             0 MiB allocation reported by mallinfo(arena+hblkhd)
        148031 MiB available memory on the node where the printing process lives
------------------
     ethr =  7.79E-08,  avg # of iterations =  3.5

     total cpu time spent up to now is      619.7 secs

     total energy              =  -41187.61871488 Ry
     estimated scf accuracy    <       0.00672991 Ry

     total magnetization       =     2.00 Bohr mag/cell
     absolute magnetization    =     2.14 Bohr mag/cell

     iteration # 44     ecut=    80.00 Ry     beta= 0.40
     Davidson diagonalization with overlap

---- Real-time Memory Report at c_bands before calling an iterative solver
           616 MiB given to the printing process from OS
             0 MiB allocation reported by mallinfo(arena+hblkhd)
        148018 MiB available memory on the node where the printing process lives
------------------
     ethr =  7.79E-08,  avg # of iterations =  2.5

     total cpu time spent up to now is      633.2 secs

     total energy              =  -41187.61867318 Ry
     estimated scf accuracy    <       0.05263565 Ry

     total magnetization       =     2.00 Bohr mag/cell
     absolute magnetization    =     2.15 Bohr mag/cell

     iteration # 45     ecut=    80.00 Ry     beta= 0.40
     Davidson diagonalization with overlap

---- Real-time Memory Report at c_bands before calling an iterative solver
           617 MiB given to the printing process from OS
             0 MiB allocation reported by mallinfo(arena+hblkhd)
        148020 MiB available memory on the node where the printing process lives
------------------
     ethr =  7.79E-08,  avg # of iterations =  2.5

     total cpu time spent up to now is      646.6 secs

     total energy              =  -41187.61888843 Ry
     estimated scf accuracy    <       0.00581061 Ry

     total magnetization       =     2.00 Bohr mag/cell
     absolute magnetization    =     2.15 Bohr mag/cell

     iteration # 46     ecut=    80.00 Ry     beta= 0.40
     Davidson diagonalization with overlap

---- Real-time Memory Report at c_bands before calling an iterative solver
           618 MiB given to the printing process from OS
             0 MiB allocation reported by mallinfo(arena+hblkhd)
        148033 MiB available memory on the node where the printing process lives
------------------
     ethr =  7.79E-08,  avg # of iterations =  1.5

     total cpu time spent up to now is      658.2 secs

     total energy              =  -41187.61893536 Ry
     estimated scf accuracy    <       0.00730986 Ry

     total magnetization       =     2.00 Bohr mag/cell
     absolute magnetization    =     2.15 Bohr mag/cell

     iteration # 47     ecut=    80.00 Ry     beta= 0.40
     Davidson diagonalization with overlap

---- Real-time Memory Report at c_bands before calling an iterative solver
           619 MiB given to the printing process from OS
             0 MiB allocation reported by mallinfo(arena+hblkhd)
        148032 MiB available memory on the node where the printing process lives
------------------
     ethr =  7.79E-08,  avg # of iterations =  1.0

     total cpu time spent up to now is      667.5 secs

     total energy              =  -41187.61898724 Ry
     estimated scf accuracy    <       0.00790225 Ry

     total magnetization       =     2.00 Bohr mag/cell
     absolute magnetization    =     2.15 Bohr mag/cell

     iteration # 48     ecut=    80.00 Ry     beta= 0.40
     Davidson diagonalization with overlap

---- Real-time Memory Report at c_bands before calling an iterative solver
           620 MiB given to the printing process from OS
             0 MiB allocation reported by mallinfo(arena+hblkhd)
        148030 MiB available memory on the node where the printing process lives
------------------
     ethr =  7.79E-08,  avg # of iterations =  1.0

     total cpu time spent up to now is      676.8 secs

     total energy              =  -41187.61823086 Ry
     estimated scf accuracy    <       0.01190941 Ry

     total magnetization       =     2.00 Bohr mag/cell
     absolute magnetization    =     2.16 Bohr mag/cell

     iteration # 49     ecut=    80.00 Ry     beta= 0.40
     Davidson diagonalization with overlap

---- Real-time Memory Report at c_bands before calling an iterative solver
           621 MiB given to the printing process from OS
             0 MiB allocation reported by mallinfo(arena+hblkhd)
        148036 MiB available memory on the node where the printing process lives
------------------
     ethr =  7.79E-08,  avg # of iterations =  4.5

     total cpu time spent up to now is      694.4 secs

     total energy              =  -41187.61816806 Ry
     estimated scf accuracy    <       0.04057403 Ry

     total magnetization       =     2.00 Bohr mag/cell
     absolute magnetization    =     2.17 Bohr mag/cell

     iteration # 50     ecut=    80.00 Ry     beta= 0.40
     Davidson diagonalization with overlap

---- Real-time Memory Report at c_bands before calling an iterative solver
           623 MiB given to the printing process from OS
             0 MiB allocation reported by mallinfo(arena+hblkhd)
        148029 MiB available memory on the node where the printing process lives
------------------
     ethr =  7.79E-08,  avg # of iterations =  2.5

     total cpu time spent up to now is      707.8 secs

     total energy              =  -41187.61863991 Ry
     estimated scf accuracy    <       0.02573602 Ry

     total magnetization       =     2.00 Bohr mag/cell
     absolute magnetization    =     2.15 Bohr mag/cell

     iteration # 51     ecut=    80.00 Ry     beta= 0.40
     Davidson diagonalization with overlap

---- Real-time Memory Report at c_bands before calling an iterative solver
           623 MiB given to the printing process from OS
             0 MiB allocation reported by mallinfo(arena+hblkhd)
        148035 MiB available memory on the node where the printing process lives
------------------
     ethr =  7.79E-08,  avg # of iterations =  2.0

     total cpu time spent up to now is      719.3 secs

     total energy              =  -41187.61810237 Ry
     estimated scf accuracy    <       0.06440032 Ry

     total magnetization       =     2.00 Bohr mag/cell
     absolute magnetization    =     2.17 Bohr mag/cell

     iteration # 52     ecut=    80.00 Ry     beta= 0.40
     Davidson diagonalization with overlap

---- Real-time Memory Report at c_bands before calling an iterative solver
           624 MiB given to the printing process from OS
             0 MiB allocation reported by mallinfo(arena+hblkhd)
        148041 MiB available memory on the node where the printing process lives
------------------
     ethr =  7.79E-08,  avg # of iterations =  2.0

     total cpu time spent up to now is      731.0 secs

     total energy              =  -41187.61866823 Ry
     estimated scf accuracy    <       0.01991998 Ry

     total magnetization       =     2.00 Bohr mag/cell
     absolute magnetization    =     2.16 Bohr mag/cell

     iteration # 53     ecut=    80.00 Ry     beta= 0.40
     Davidson diagonalization with overlap

---- Real-time Memory Report at c_bands before calling an iterative solver
           624 MiB given to the printing process from OS
             0 MiB allocation reported by mallinfo(arena+hblkhd)
        148014 MiB available memory on the node where the printing process lives
------------------
     ethr =  7.79E-08,  avg # of iterations =  1.0

     total cpu time spent up to now is      740.2 secs

     total energy              =  -41187.61871642 Ry
     estimated scf accuracy    <       0.01872326 Ry

     total magnetization       =     2.00 Bohr mag/cell
     absolute magnetization    =     2.15 Bohr mag/cell

     iteration # 54     ecut=    80.00 Ry     beta= 0.40
     Davidson diagonalization with overlap

---- Real-time Memory Report at c_bands before calling an iterative solver
           625 MiB given to the printing process from OS
             0 MiB allocation reported by mallinfo(arena+hblkhd)
        148023 MiB available memory on the node where the printing process lives
------------------
     ethr =  7.79E-08,  avg # of iterations =  1.0

     total cpu time spent up to now is      749.5 secs

     total energy              =  -41187.61870738 Ry
     estimated scf accuracy    <       0.02122595 Ry

     total magnetization       =     2.00 Bohr mag/cell
     absolute magnetization    =     2.16 Bohr mag/cell

     iteration # 55     ecut=    80.00 Ry     beta= 0.40
     Davidson diagonalization with overlap

---- Real-time Memory Report at c_bands before calling an iterative solver
           626 MiB given to the printing process from OS
             0 MiB allocation reported by mallinfo(arena+hblkhd)
        148018 MiB available memory on the node where the printing process lives
------------------
     ethr =  7.79E-08,  avg # of iterations =  1.0

     total cpu time spent up to now is      758.7 secs

     total energy              =  -41187.61873437 Ry
     estimated scf accuracy    <       0.01936579 Ry

     total magnetization       =     2.00 Bohr mag/cell
     absolute magnetization    =     2.16 Bohr mag/cell

     iteration # 56     ecut=    80.00 Ry     beta= 0.40
     Davidson diagonalization with overlap

---- Real-time Memory Report at c_bands before calling an iterative solver
           627 MiB given to the printing process from OS
             0 MiB allocation reported by mallinfo(arena+hblkhd)
        148021 MiB available memory on the node where the printing process lives
------------------
     ethr =  7.79E-08,  avg # of iterations =  1.0

     total cpu time spent up to now is      767.9 secs

     total energy              =  -41187.61872863 Ry
     estimated scf accuracy    <       0.02377379 Ry

     total magnetization       =     2.00 Bohr mag/cell
     absolute magnetization    =     2.16 Bohr mag/cell

     iteration # 57     ecut=    80.00 Ry     beta= 0.40
     Davidson diagonalization with overlap

---- Real-time Memory Report at c_bands before calling an iterative solver
           628 MiB given to the printing process from OS
             0 MiB allocation reported by mallinfo(arena+hblkhd)
        148021 MiB available memory on the node where the printing process lives
------------------
     ethr =  7.79E-08,  avg # of iterations =  1.0

     total cpu time spent up to now is      777.2 secs

     total energy              =  -41187.61867301 Ry
     estimated scf accuracy    <       0.02398089 Ry

     total magnetization       =     2.00 Bohr mag/cell
     absolute magnetization    =     2.15 Bohr mag/cell

     iteration # 58     ecut=    80.00 Ry     beta= 0.40
     Davidson diagonalization with overlap

---- Real-time Memory Report at c_bands before calling an iterative solver
           628 MiB given to the printing process from OS
             0 MiB allocation reported by mallinfo(arena+hblkhd)
        148027 MiB available memory on the node where the printing process lives
------------------
     ethr =  7.79E-08,  avg # of iterations =  2.0

     total cpu time spent up to now is      788.7 secs

     total energy              =  -41187.61865322 Ry
     estimated scf accuracy    <       0.02331707 Ry

     total magnetization       =     2.00 Bohr mag/cell
     absolute magnetization    =     2.14 Bohr mag/cell

[...]
     2.3026   2.3029   2.3066   2.3081   2.3081   2.3092   2.3093   2.3157
     2.3157   2.3164   2.3201   2.3296   2.3297   2.3327   2.3382   2.3390
     2.3390   2.3480   2.3480   2.3506   2.3531   2.3532   2.3533   2.3581
     2.3581   2.3607   2.3607   2.3693   2.3702   2.3713   2.3713   2.3776
     2.3778   2.3887   2.3887   2.3898   2.3917   2.3917   2.3943   2.3986
     2.3987   2.4033   2.4050   2.4050   2.4090   2.4091   2.4104   2.4106
     2.4106   2.4127   2.4163   2.4194   2.4194   2.4221   2.4319   2.4319
     2.4361   2.4369   2.4370   2.4371   2.4409   2.4409   2.4675   2.4675
     2.4716   2.4772   2.4783   2.4783   2.4930   2.4931   2.4945   2.5002
     2.5279   2.5279   2.5413   2.5476   2.5476   2.5485   2.5770   2.5770
     2.5794   2.5906   2.5949   2.5950   2.5960   2.6192   2.6193   2.6234
     2.6236   2.6575   2.6575   2.6776   2.7189   2.7190   2.7213   2.7213
     2.7402   2.7402   2.9493   3.3110   3.3111   3.4319   3.4324   3.4468
     3.5031   3.5240   3.5330   3.5331   3.5470   3.5471   3.5560   3.5863
     3.6230   3.6230   3.7211   3.7211   3.7495   3.7971   3.8010   3.8012
     3.8470   3.8470   3.9163   3.9328   3.9463   3.9464   3.9636   3.9637
     3.9770   3.9960   3.9987   3.9988   4.0376   4.0602   4.0604   4.0614
     4.0757   4.0758   4.1064   4.1366   4.1367   4.2691   4.2691   4.3003
     4.3367   4.3368   4.3383   4.3466   4.3518   4.3610   4.3611   4.3751
     4.3965   4.3966   4.4480   4.4481   4.4621   4.4645   4.5105   4.5105
     4.5401   4.5402   4.5952   4.6089   4.6174   4.6174   4.6307   4.6309
     4.6497   4.6497   4.6502   4.6547   4.7067   4.8153   4.8153   5.0145
     5.0148   5.0455   5.0933   5.1445   5.1445   5.1478   5.1668   5.1669
     5.2274   5.2275   5.2329   5.2456   5.2583   5.2584   5.2692   5.3051
     5.3051   5.3340   5.3591   5.3591   5.3679   5.3722   5.3722   5.3831
     5.3848   5.3849   5.4016   5.4201   5.4673   5.4675   5.4741   5.5226
     5.5229   5.5640   5.5640   5.5804   5.5832   5.5833   5.5923   5.6302
     5.6520   5.6523   5.7316   5.7318   5.7556   5.8811   5.8815   5.9544
     5.9545   5.9981   6.0818   6.0820   6.0899   6.1078   6.1247   6.1248
     6.1292   6.1475   6.1490   6.1491   6.1556   6.1556   6.1699   6.1699
     6.1759   6.1837   6.1867   6.1868   6.2008   6.2074   6.2080   6.2081
     6.2318   6.2319   6.2320   6.2342   6.2342   6.2385   6.2844   6.2872
     6.2872   6.3025   6.3240   6.3240   6.3433   6.3494   6.3495   6.3878
     6.3919   6.3919   6.4095   6.4096   6.4247   6.4375   6.4463   6.4464
     6.4550   6.4551   6.4783   6.5500   6.5599   6.5600   6.5916   6.6096
     6.6097   6.6769   6.6770   6.6920   6.7518   6.7677   6.7706   6.7707
     6.7875   6.7894   6.7895   6.8271   6.8271   6.8561   6.8563   6.8564
     6.8568   6.8653   6.8868   6.8869   6.9109   6.9112   6.9122   6.9259
     6.9353   6.9375   6.9377   6.9414   6.9493   6.9494   6.9633   6.9815
     6.9816   6.9982   7.0184   7.0208   7.0208   7.0328   7.0328   7.1006
     7.1043   7.1074   7.1075   7.1141   7.1183   7.1184   7.1374   7.1406
     7.1406   7.1500   7.1500   7.2148   7.2148   7.2416   7.2730   7.2732
     7.3187   7.3424   7.3496   7.3497   7.3688   7.3689   7.3966   7.3966
     7.4043   7.4044   7.4187   7.4204   7.4269   7.4270   7.4708   7.4759
     7.4759   7.4991   7.4992   7.5080   7.5333   7.5424   7.5425   7.5499
     7.5974   7.6022   7.6025   7.6223   7.6225   7.6890   7.6893   7.7348
     7.7348   7.7512   7.7797   7.7799   7.8264   7.8349   7.8350   7.8436
     7.9888   7.9888   8.0497   8.0498   8.1572   8.2746   8.2746   9.1440
    11.6886  13.1079  13.2572  13.2703  13.2724  14.0853  14.0856  14.1221
    14.1921  14.2364  14.2364  14.2719  14.7533  14.7535  14.8223  14.8628
    14.8628  14.8650  14.8654  14.9205

     occupation numbers 
     1.0000   1.0000   1.0000   1.0000   1.0000   1.0000   1.0000   1.0000
     1.0000   1.0000   1.0000   1.0000   1.0000   1.0000   1.0000   1.0000
     1.0000   1.0000   1.0000   1.0000   1.0000   1.0000   1.0000   1.0000
     1.0000   1.0000   1.0000   1.0000   1.0000   1.0000   1.0000   1.0000
     1.0000   1.0000   1.0000   1.0000   1.0000   1.0000   1.0000   1.0000
     1.0000   1.0000   1.0000   1.0000   1.0000   1.0000   1.0000   1.0000
     1.0000   1.0000   1.0000   1.0000   1.0000   1.0000   1.0000   1.0000
     1.0000   1.0000   1.0000   1.0000   1.0000   1.0000   1.0000   1.0000
     1.0000   1.0000   1.0000   1.0000   1.0000   1.0000   1.0000   1.0000
     1.0000   1.0000   1.0000   1.0000   1.0000   1.0000   1.0000   1.0000
     1.0000   1.0000   1.0000   1.0000   1.0000   1.0000   1.0000   1.0000
     1.0000   1.0000   1.0000   1.0000   1.0000   1.0000   1.0000   1.0000
     1.0000   1.0000   1.0000   1.0000   1.0000   1.0000   1.0000   1.0000
     1.0000   1.0000   1.0000   1.0000   1.0000   1.0000   1.0000   1.0000
     1.0000   1.0000   1.0000   1.0000   1.0000   1.0000   1.0000   1.0000
     1.0000   1.0000   1.0000   1.0000   1.0000   1.0000   1.0000   1.0000
     1.0000   1.0000   1.0000   1.0000   1.0000   1.0000   1.0000   1.0000
     1.0000   1.0000   1.0000   1.0000   1.0000   1.0000   1.0000   1.0000
     1.0000   1.0000   1.0000   1.0000   1.0000   1.0000   1.0000   1.0000
     1.0000   1.0000   1.0000   1.0000   1.0000   1.0000   1.0000   1.0000
     1.0000   1.0000   1.0000   1.0000   1.0000   1.0000   1.0000   1.0000
     1.0000   1.0000   1.0000   1.0000   1.0000   1.0000   1.0000   1.0000
     1.0000   1.0000   1.0000   1.0000   1.0000   1.0000   1.0000   1.0000
     1.0000   1.0000   1.0000   1.0000   1.0000   1.0000   1.0000   1.0000
     1.0000   1.0000   1.0000   1.0000   1.0000   1.0000   1.0000   1.0000
     1.0000   1.0000   1.0000   1.0000   1.0000   1.0000   1.0000   1.0000
     1.0000   1.0000   1.0000   1.0000   1.0000   1.0000   1.0000   1.0000
     1.0000   1.0000   1.0000   1.0000   1.0000   1.0000   1.0000   1.0000
     1.0000   1.0000   1.0000   1.0000   1.0000   1.0000   1.0000   1.0000
     1.0000   1.0000   1.0000   1.0000   1.0000   1.0000   1.0000   1.0000
     1.0000   1.0000   1.0000   1.0000   1.0000   1.0000   1.0000   1.0000
     1.0000   1.0000   1.0000   1.0000   1.0000   1.0000   1.0000   1.0000
     1.0000   1.0000   1.0000   1.0000   1.0000   1.0000   1.0000   1.0000
     1.0000   1.0000   1.0000   1.0000   1.0000   1.0000   1.0000   1.0000
     1.0000   1.0000   1.0000   1.0000   1.0000   1.0000   1.0000   1.0000
     1.0000   1.0000   1.0000   1.0000   1.0000   1.0000   1.0000   1.0000
     1.0000   1.0000   1.0000   1.0000   1.0000   1.0000   1.0000   1.0000
     1.0000   1.0000   1.0000   1.0000   1.0000   1.0000   1.0000   1.0000
     1.0000   1.0000   1.0000   1.0000   1.0000   1.0000   1.0000   1.0000
     1.0000   1.0000   1.0000   1.0000   1.0000   1.0000   1.0000   1.0000
     1.0000   1.0000   1.0000   1.0000   1.0000   1.0000   1.0000   1.0000
     1.0000   1.0000   1.0000   1.0000   1.0000   1.0000   1.0000   1.0000
     1.0000   1.0000   1.0000   1.0000   1.0000   1.0000   1.0000   1.0000
     1.0000   1.0000   1.0000   1.0000   1.0000   1.0000   1.0000   1.0000
     1.0000   1.0000   1.0000   1.0000   1.0000   1.0000   1.0000   1.0000
     1.0000   1.0000   1.0000   1.0000   1.0000   1.0000   1.0000   1.0000
     1.0000   1.0000   1.0000   1.0000   1.0000   1.0000   1.0000   1.0000
     1.0000   1.0000   1.0000   1.0000   1.0000   1.0000   1.0000   1.0000
     1.0000   1.0000   1.0000   1.0000   1.0000   1.0000   1.0000   1.0000
     1.0000   1.0000   1.0000   1.0000   1.0000   1.0000   1.0000   1.0000
     1.0000   1.0000   1.0000   1.0000   1.0000   1.0000   1.0000   1.0000
     1.0000   1.0000   1.0000   1.0000   1.0000   1.0000   1.0000   1.0000
     1.0000   1.0000   1.0000   1.0000   1.0000   1.0000   1.0000   1.0000
     1.0000   1.0000   1.0000   1.0000   1.0000   1.0000   1.0000   1.0000
     1.0000   1.0000   1.0000   1.0000   1.0000   1.0000   1.0000   1.0000
     1.0000   1.0000   1.0000   1.0000   1.0000   1.0000   1.0000   1.0000
     1.0000   1.0000   1.0000   1.0000   1.0000   1.0000   1.0000   1.0000
     1.0000   1.0000   1.0000   1.0000   1.0000   1.0000   1.0000   1.0000
     1.0000   1.0000   1.0000   1.0000   1.0000   1.0000   1.0000   1.0000
     1.0000   1.0000   1.0000   1.0000   1.0000   1.0000   1.0000   1.0000
     1.0000   1.0000   1.0000   1.0000   1.0000   1.0000   1.0000   1.0000
     1.0000   1.0000   1.0000   1.0000   1.0000   1.0000   1.0000   1.0000
     1.0000   1.0000   1.0000   1.0000   1.0000   1.0000   1.0000   1.0000
     1.0000   1.0000   1.0000   1.0000   1.0000   1.0000   1.0000   1.0000
     1.0000   1.0000   1.0000   1.0000   1.0000   1.0000   1.0000   1.0000
     1.0000   1.0000   1.0000   1.0000   1.0000   1.0000   1.0000   1.0000
     1.0000   1.0000   1.0000   1.0000   1.0000   1.0000   1.0000   1.0000
     1.0000   1.0000   1.0000   1.0000   1.0000   1.0000   1.0000   1.0000
     1.0000   1.0000   1.0000   1.0000   1.0000   1.0000   1.0000   1.0000
     1.0000   1.0000   1.0000   1.0000   1.0000   1.0000   1.0000   1.0000
     1.0000   1.0000   1.0000   1.0000   1.0000   1.0000   1.0000   1.0000
     1.0000   1.0000   1.0000   1.0000   1.0000   1.0000   1.0000   1.0000
     1.0000   1.0000   1.0000   1.0000   1.0000   1.0000   1.0000   1.0000
     1.0000   1.0000   1.0000   1.0000   1.0000   1.0000   1.0000   1.0000
     1.0000   1.0000   1.0000   1.0000   1.0000   1.0000   1.0000   1.0000
     1.0000   1.0000   1.0000   1.0000   1.0000   1.0000   1.0000   1.0000
     1.0000   1.0000   1.0000   1.0000   1.0000   1.0000   1.0000   1.0000
     1.0000   1.0000   1.0000   1.0000   1.0000   1.0000   1.0000   1.0000
     1.0000   1.0000   1.0000   1.0000   1.0000   1.0000   1.0000   1.0000
     1.0000   1.0000   1.0000   1.0000   1.0000   1.0000   1.0000   1.0000
     1.0000   1.0000   1.0000   1.0000   1.0000   1.0000   1.0000   1.0000
     1.0000   1.0000   1.0000   1.0000   1.0000   1.0000   1.0000   1.0000
     1.0000   1.0000   1.0000   1.0000   1.0000   1.0000   1.0000   1.0000
     1.0000   1.0000   1.0000   1.0000   1.0000   1.0000   1.0000   1.0000
     1.0000   1.0000   1.0000   1.0000   1.0000   1.0000   1.0000   1.0000
     1.0000   1.0000   1.0000   1.0000   1.0000   1.0000   1.0000   1.0000
     1.0000   1.0000   1.0000   1.0000   1.0000   1.0000   1.0000   1.0000
     1.0000   1.0000   1.0000   1.0000   1.0000   1.0000   1.0000   1.0000
     1.0000   1.0000   1.0000   1.0000   1.0000   1.0000   1.0000   1.0000
     1.0000   1.0000   1.0000   1.0000   1.0000   1.0000   1.0000   1.0000
     1.0000   1.0000   1.0000   1.0000   1.0000   1.0000   1.0000   1.0000
     1.0000   1.0000   1.0000   1.0000   1.0000   1.0000   1.0000   1.0000
     1.0000   1.0000   1.0000   1.0000   1.0000   1.0000   1.0000   1.0000
     1.0000   1.0000   1.0000   1.0000   1.0000   1.0000   1.0000   1.0000
     1.0000   1.0000   1.0000   1.0000   1.0000   1.0000   1.0000   1.0000
     1.0000   1.0000   1.0000   1.0000   1.0000   1.0000   1.0000   1.0000
     1.0000   1.0000   1.0000   1.0000   1.0000   1.0000   1.0000   1.0000
     1.0000   1.0000   1.0000   1.0000   1.0000   1.0000   1.0000   1.0000
     1.0000   1.0000   1.0000   1.0000   1.0000   1.0000   1.0000   1.0000
     1.0000   1.0000   1.0000   1.0000   1.0000   1.0000   1.0000   1.0000
     1.0000   1.0000   1.0000   1.0000   1.0000   1.0000   1.0000   1.0000
     1.0000   1.0000   1.0000   1.0000   1.0000   1.0000   1.0000   1.0000
     1.0000   1.0000   1.0000   1.0000   1.0000   1.0000   1.0000   1.0000
     1.0000   1.0000   1.0000   1.0000   1.0000   1.0000   1.0000   1.0000
     1.0000   1.0000   1.0000   1.0000   1.0000   1.0000   1.0000   1.0000
     1.0000   1.0000   1.0000   1.0000   1.0000   1.0000   1.0000   1.0000
     1.0000   1.0000   1.0000   1.0000   1.0000   1.0000   1.0000   1.0000
     1.0000   1.0000   1.0000   1.0000   1.0000   1.0000   1.0000   1.0000
     1.0000   1.0000   1.0000   1.0000   1.0000   1.0000   1.0000   1.0000
     1.0000   1.0000   1.0000   1.0000   1.0000   1.0000   1.0000   1.0000
     1.0000   1.0000   1.0000   1.0000   1.0000   1.0000   1.0000   1.0000
     1.0000   1.0000   1.0000   1.0000   1.0000   1.0000   1.0000   1.0000
     1.0000   1.0000   1.0000   1.0000   1.0000   1.0000   1.0000   1.0000
     1.0000   1.0000   1.0000   1.0000   1.0000   1.0000   1.0000   1.0000
     1.0000   1.0000   1.0000   1.0000   1.0000   1.0000   1.0000   1.0000
     1.0000   1.0000   1.0000   1.0000   1.0000   1.0000   1.0000   1.0000
     1.0000   1.0000   1.0000   1.0000   1.0000   1.0000   1.0000   1.0000
     1.0000   1.0000   1.0000   1.0000   1.0000   1.0000   1.0000   1.0000
     1.0000   1.0000   1.0000   1.0000   1.0000   1.0000   1.0000   1.0000
     1.0000   1.0000   1.0000   1.0000   1.0000   1.0000   1.0000   1.0000
     1.0000   1.0000   1.0000   1.0000   1.0000   1.0000   1.0000   1.0000
     1.0000   1.0000   1.0000   1.0000   1.0000   1.0000   1.0000   1.0000
     1.0000   1.0000   1.0000   1.0000   1.0000   1.0000   1.0000   1.0000
     1.0000   1.0000   1.0000   1.0000   1.0000   1.0000   1.0000   1.0000
     1.0000   1.0000   1.0000   1.0000   1.0000   1.0000   1.0000   1.0000
     1.0000   1.0000   1.0000   1.0000   1.0000   1.0000   1.0000   1.0000
     1.0000   1.0000   1.0000   1.0000   1.0000   1.0000   1.0000   1.0000
     1.0000   1.0000   1.0000   1.0000   1.0000   1.0000   1.0000   1.0000
     1.0000   1.0000   1.0000   1.0000   1.0000   1.0000   1.0000   1.0000
     1.0000   1.0000   1.0000   1.0000   1.0000   1.0000   1.0000   1.0000
     1.0000   1.0000   1.0000   1.0000   1.0000   1.0000   1.0000   1.0000
     1.0000   1.0000   1.0000   1.0000   1.0000   1.0000   1.0000   1.0000
     1.0000   1.0000   1.0000   1.0000   1.0000   1.0000   1.0000   1.0000
     1.0000   1.0000   1.0000   1.0000   1.0000   1.0000   1.0000   1.0000
     1.0000   1.0000   1.0000   1.0000   1.0000   1.0000   1.0000   1.0000
     1.0000   1.0000   1.0000   1.0000   1.0000   1.0000   1.0000   1.0000
     1.0000   1.0000   1.0000   1.0000   1.0000   1.0000   1.0000   1.0000
     1.0000   1.0000   1.0000   1.0000   1.0000   1.0000   1.0000   1.0000
     1.0000   1.0000   1.0000   1.0000   1.0000   1.0000   1.0000   1.0000
     1.0000   1.0000   1.0000   1.0000   1.0000   1.0000   1.0000   1.0000
     1.0000   1.0000   1.0000   1.0000   1.0000   1.0000   1.0000   1.0000
     1.0000   1.0000   1.0000   1.0000   1.0000   1.0000   1.0000   1.0000
     1.0000   1.0000   1.0000   1.0000   1.0000   1.0000   1.0000   1.0000
     1.0000   1.0000   1.0000   1.0000   1.0000   1.0000   1.0000   1.0000
     1.0000   1.0000   1.0000   1.0000   1.0000   1.0000   1.0000   1.0000
     1.0000   1.0000   1.0000   1.0000   1.0000   1.0000   1.0000   1.0000
     1.0000   1.0000   1.0000   1.0000   1.0000   1.0000   1.0000   1.0000
     1.0000   1.0000   1.0000   1.0000   1.0000   1.0000   1.0000   1.0000
     1.0000   1.0000   1.0000   1.0000   1.0000   1.0000   1.0000   1.0000
     1.0000   1.0000   1.0000   1.0000   1.0000   1.0000   1.0000   1.0000
     1.0000   1.0000   1.0000   1.0000   1.0000   1.0000   1.0000   1.0000
     1.0000   1.0000   1.0000   1.0000   1.0000   1.0000   1.0000   1.0000
     1.0000   1.0000   1.0000   1.0000   1.0000   1.0000   1.0000   1.0000
     1.0000   1.0000   1.0000   1.0000   1.0000   1.0000   1.0000   1.0000
     1.0000   1.0000   1.0000   1.0000   1.0000   1.0000   1.0000   1.0000
     0.0000   0.0000   0.0000   0.0000   0.0000   0.0000   0.0000   0.0000
     0.0000   0.0000   0.0000   0.0000   0.0000   0.0000   0.0000   0.0000
     0.0000   0.0000   0.0000   0.0000

     the Fermi energy is    10.6856 ev

!    total energy              =  -41188.67615443 Ry
     estimated scf accuracy    <          4.3E-10 Ry
     smearing contrib. (-TS)   =      -0.00000000 Ry
     internal energy E=F+TS    =  -41188.67615443 Ry

     total magnetization       =     2.00 Bohr mag/cell
     absolute magnetization    =     2.22 Bohr mag/cell

     convergence has been achieved in   1 iterations

     Using ACE for calculation of exact exchange
     ACE projected onto  1260 (nbndproj) and applied to  1260 (nbnd) bands

!!   total energy              =  -41188.67615443 Ry
     Harris-Foulkes estimate   =  -41188.67615443 Ry
     est. exchange err (dexx)  =          6.8E-10 Ry
     - averaged Fock potential =    2728.41962092 Ry
     + Fock energy (ACE)       =   -1364.20981175 Ry

     EXX self-consistency reached

     Writing all to output data dir temp/pwscf.save/
 
     init_run     :      3.80s CPU      4.08s WALL (       1 calls)
     electrons    :   2186.20s CPU   2235.36s WALL (      22 calls)

     Called by init_run:
     aceinit0     :      0.00s CPU      0.00s WALL (       1 calls)
     wfcinit      :      2.60s CPU      2.80s WALL (       1 calls)
     wfcinit:atom :      0.02s CPU      0.03s WALL (       1 calls)
     wfcinit:wfcr :      2.34s CPU      2.50s WALL (       1 calls)
     potinit      :      0.31s CPU      0.33s WALL (       1 calls)
     hinit0       :      0.68s CPU      0.74s WALL (       1 calls)

     Called by electrons:
     c_bands      :   2147.26s CPU   2194.72s WALL (     126 calls)
     sum_band     :     21.77s CPU     22.20s WALL (     126 calls)
     v_of_rho     :     13.12s CPU     13.28s WALL (     127 calls)
     v_h          :      0.40s CPU      0.42s WALL (     127 calls)
     v_xc         :     12.71s CPU     12.84s WALL (     127 calls)
     mix_rho      :      1.48s CPU      1.58s WALL (     126 calls)

     Called by c_bands:
     init_us_2    :      6.95s CPU      7.03s WALL (     253 calls)
     init_us_2:cp :      6.95s CPU      7.02s WALL (     253 calls)
     regterg      :   2009.63s CPU   2056.31s WALL (     126 calls)

     Called by sum_band:
     sum_band:wei :      0.31s CPU      0.33s WALL (     126 calls)
     sum_band:loo :     19.67s CPU     19.87s WALL (     126 calls)
     sum_band:buf :      0.00s CPU      0.00s WALL (     126 calls)
     sum_band:ini :      3.47s CPU      3.51s WALL (     126 calls)

     Called by *egterg:
     rdiaghg      :   1279.58s CPU   1283.44s WALL (     496 calls)
     regterg:over :     64.90s CPU     71.87s WALL (     392 calls)
     regterg:upda :     22.14s CPU     25.30s WALL (     392 calls)
     regterg:last :     39.45s CPU     45.40s WALL (     235 calls)
     h_psi        :    389.36s CPU    394.99s WALL (     519 calls)
     g_psi        :      1.54s CPU      1.55s WALL (     392 calls)

     Called by h_psi:
     h_psi:calbec :     76.93s CPU     77.26s WALL (     519 calls)
     vloc_psi     :    150.67s CPU    152.32s WALL (     519 calls)
     add_vuspsi   :     75.00s CPU     76.14s WALL (     519 calls)

     General routines
     calbec       :    130.25s CPU    130.76s WALL (     896 calls)
     fft          :      3.04s CPU      3.14s WALL (    1628 calls)
     ffts         :      0.28s CPU      0.29s WALL (     126 calls)
     fftw         :    133.62s CPU    134.94s WALL (  230348 calls)
     fftc         :   4116.08s CPU   4151.72s WALL ( 8635410 calls)
     fftcw        :      8.17s CPU      8.27s WALL (   24310 calls)
 
     Parallel routines

     EXX routines
     exx_grid     :      0.00s CPU      0.00s WALL (       1 calls)
     exxinit      :     32.89s CPU     34.58s WALL (      22 calls)
     vexx         :   5580.76s CPU   5636.43s WALL (      22 calls)
     matcalc      :     54.25s CPU     54.44s WALL (     377 calls)
     aceupdate    :      5.98s CPU      6.26s WALL (      22 calls)
     vexxace      :    120.94s CPU    124.14s WALL (     312 calls)
     aceinit      :   5592.17s CPU   5648.16s WALL (      22 calls)
 
     PWSCF        :      2h11m CPU      2h13m WALL

 
   This run was terminated on:  18:25:15  14Dec2023            

=------------------------------------------------------------------------------=
   JOB DONE.
=------------------------------------------------------------------------------=
