  192  192    5    2
  0.1189045E+02  0.1299435E-08  0.1299435E-08  0.1561204E-08  0.5000000E-15
  1.000000000000000E-004
  CAR 
 zno                                     
   1728      1   1056
 
  0.0000000E+00  0.0000000E+00  0.0000000E+00  0.1000000E+01
      1        -67.532717      -65.876414   1.000000   1.000000
      2        -39.852480      -38.133813   1.000000   1.000000
      3        -39.851224      -38.131600   1.000000   1.000000
      4        -39.782994      -37.233500   1.000000   1.000000
      5        -21.666218      -21.564924   1.000000   1.000000
      6        -21.253433      -21.117979   1.000000   1.000000
      7        -21.250446      -21.115292   1.000000   1.000000
      8        -20.834169      -20.808354   1.000000   1.000000
      9        -20.776069      -20.705276   1.000000   1.000000
     10        -20.679977      -20.660205   1.000000   1.000000
     11        -20.582317      -20.580235   1.000000   1.000000
     12        -20.581749      -20.579659   1.000000   1.000000
     13        -20.579829      -20.572155   1.000000   1.000000
     14        -20.524890      -20.521101   1.000000   1.000000
     15        -20.524452      -20.520631   1.000000   1.000000
     16        -20.506907      -20.490748   1.000000   1.000000
     17        -20.483929      -20.484311   1.000000   1.000000
     18        -20.438876      -20.436944   1.000000   1.000000
     19        -20.438571      -20.436644   1.000000   1.000000
     20        -20.381633      -20.381305   1.000000   1.000000
     21        -20.358522      -20.357460   1.000000   1.000000
     22        -20.358330      -20.357274   1.000000   1.000000
     23        -20.341125      -20.340992   1.000000   1.000000
     24        -20.340983      -20.340853   1.000000   1.000000
     25        -20.317633      -20.315121   1.000000   1.000000
     26        -20.305461      -20.305500   1.000000   1.000000
     27        -20.305342      -20.305379   1.000000   1.000000
     28        -20.288377      -20.287976   1.000000   1.000000
     29        -20.283348      -20.280140   1.000000   1.000000
     30        -20.275042      -20.274947   1.000000   1.000000
     31        -20.263079      -20.262303   1.000000   1.000000
     32        -20.245302      -20.242030   1.000000   1.000000
     33        -20.240703      -20.237577   1.000000   1.000000
     34        -20.217330      -20.217599   1.000000   1.000000
     35        -20.216917      -20.217177   1.000000   1.000000
     36        -20.191402      -20.190347   1.000000   1.000000
     37        -20.190896      -20.189829   1.000000   1.000000
     38        -20.173137      -20.170924   1.000000   1.000000
     39        -20.171173      -20.169887   1.000000   1.000000
     40        -20.170680      -20.169402   1.000000   1.000000
     41        -20.142673      -20.142752   1.000000   1.000000
     42        -20.116258      -20.115251   1.000000   1.000000
     43        -20.115992      -20.115037   1.000000   1.000000
     44        -20.113208      -20.113163   1.000000   1.000000
     45        -20.112943      -20.112843   1.000000   1.000000
     46        -20.100912      -20.100285   1.000000   1.000000
     47        -20.100528      -20.099892   1.000000   1.000000
     48        -20.081791      -20.081149   1.000000   1.000000
     49        -20.078833      -20.078740   1.000000   1.000000
     50        -20.060054      -20.059922   1.000000   1.000000
     51        -20.059996      -20.059872   1.000000   1.000000
     52        -20.052863      -20.052385   1.000000   1.000000
     53        -20.038421      -20.038120   1.000000   1.000000
     54        -20.022459      -20.022374   1.000000   1.000000
     55        -20.020417      -20.020042   1.000000   1.000000
     56        -20.020408      -20.020033   1.000000   1.000000
     57        -20.006126      -20.006105   1.000000   1.000000
     58        -20.006091      -20.006069   1.000000   1.000000
     59        -19.994135      -19.994137   1.000000   1.000000
     60        -19.993996      -19.993998   1.000000   1.000000
     61        -19.993125      -19.993099   1.000000   1.000000
     62        -19.981641      -19.981552   1.000000   1.000000
     63        -19.979795      -19.979615   1.000000   1.000000
     64        -19.977300      -19.976851   1.000000   1.000000
     65        -19.977224      -19.976773   1.000000   1.000000
     66        -19.975294      -19.975272   1.000000   1.000000
     67        -19.975251      -19.975228   1.000000   1.000000
     68        -19.957617      -19.957537   1.000000   1.000000
     69        -19.957604      -19.957525   1.000000   1.000000
     70        -19.956901      -19.956887   1.000000   1.000000
     71        -19.946601      -19.946454   1.000000   1.000000
     72        -19.909802      -19.909585   1.000000   1.000000
     73        -19.909793      -19.909572   1.000000   1.000000
     74        -19.908905      -19.908818   1.000000   1.000000
     75        -19.908242      -19.907937   1.000000   1.000000
     76        -19.908199      -19.907898   1.000000   1.000000
     77        -19.892491      -19.892499   1.000000   1.000000
     78        -19.892360      -19.892367   1.000000   1.000000
     79        -19.886892      -19.886689   1.000000   1.000000
     80        -19.879315      -19.879166   1.000000   1.000000
     81        -19.878192      -19.878182   1.000000   1.000000
     82        -19.878098      -19.878089   1.000000   1.000000
     83        -19.862454      -19.862315   1.000000   1.000000
     84        -19.850299      -19.850272   1.000000   1.000000
     85        -19.850182      -19.850155   1.000000   1.000000
     86        -19.845287      -19.845248   1.000000   1.000000
     87        -19.845184      -19.845145   1.000000   1.000000
     88        -19.831490      -19.831465   1.000000   1.000000
     89        -19.827921      -19.827899   1.000000   1.000000
     90        -19.825877      -19.825823   1.000000   1.000000
     91        -19.825727      -19.825673   1.000000   1.000000
     92        -19.794990      -19.794905   1.000000   1.000000
     93        -19.790372      -19.790306   1.000000   1.000000
     94        -19.790333      -19.790267   1.000000   1.000000
     95        -19.775694      -19.775651   1.000000   1.000000
     96        -19.755661      -19.755649   1.000000   1.000000
     97        -19.755493      -19.755481   1.000000   1.000000
     98        -19.749390      -19.749376   1.000000   1.000000
     99        -19.749360      -19.749346   1.000000   1.000000
    100        -19.748149      -19.748139   1.000000   1.000000
    101         -8.193289       -8.151970   1.000000   1.000000
    102         -8.192975       -8.151611   1.000000   1.000000
    103         -8.145348       -8.105690   1.000000   1.000000
    104         -8.144348       -8.080759   1.000000   1.000000
    105         -8.121319       -8.079970   1.000000   1.000000
    106         -8.094728       -8.052302   1.000000   1.000000
    107         -8.094408       -8.051236   1.000000   1.000000
    108         -8.075427       -8.050446   1.000000   1.000000
    109         -8.010614       -8.005036   1.000000   1.000000
    110         -8.010291       -8.004850   1.000000   1.000000
    111         -8.009948       -8.002559   1.000000   1.000000
    112         -7.978874       -7.975467   1.000000   1.000000
    113         -7.978369       -7.974819   1.000000   1.000000
    114         -7.975809       -7.974422   1.000000   1.000000
    115         -7.970111       -7.965268   1.000000   1.000000
    116         -7.944288       -7.941271   1.000000   1.000000
    117         -7.944035       -7.940946   1.000000   1.000000
    118         -7.942986       -7.936139   1.000000   1.000000
    119         -7.933253       -7.929985   1.000000   1.000000
    120         -7.930224       -7.926030   1.000000   1.000000
    121         -7.929710       -7.925445   1.000000   1.000000
    122         -7.905416       -7.896973   1.000000   1.000000
    123         -7.905121       -7.896966   1.000000   1.000000
    124         -7.885295       -7.879356   1.000000   1.000000
    125         -7.885234       -7.879306   1.000000   1.000000
    126         -7.875954       -7.865081   1.000000   1.000000
    127         -7.875778       -7.865028   1.000000   1.000000
    128         -7.866158       -7.858138   1.000000   1.000000
    129         -7.866105       -7.857651   1.000000   1.000000
    130         -7.862200       -7.850890   1.000000   1.000000
    131         -7.842346       -7.838802   1.000000   1.000000
    132         -7.836760       -7.832297   1.000000   1.000000
    133         -7.836554       -7.832080   1.000000   1.000000
    134         -7.832257       -7.831385   1.000000   1.000000
    135         -7.832021       -7.827051   1.000000   1.000000
    136         -7.831831       -7.824903   1.000000   1.000000
    137         -7.829148       -7.824829   1.000000   1.000000
    138         -7.799832       -7.798488   1.000000   1.000000
    139         -7.799048       -7.794992   1.000000   1.000000
    140         -7.790926       -7.785805   1.000000   1.000000
    141         -7.790682       -7.785571   1.000000   1.000000
    142         -7.763578       -7.762574   1.000000   1.000000
    143         -7.762627       -7.760331   1.000000   1.000000
    144         -7.762492       -7.760226   1.000000   1.000000
    145         -7.756663       -7.755210   1.000000   1.000000
    146         -7.753315       -7.753127   1.000000   1.000000
    147         -7.752041       -7.746817   1.000000   1.000000
    148         -7.751923       -7.746713   1.000000   1.000000
    149         -7.747172       -7.744610   1.000000   1.000000
    150         -7.747125       -7.742483   1.000000   1.000000
    151         -7.746191       -7.742364   1.000000   1.000000
    152         -7.721618       -7.721462   1.000000   1.000000
    153         -7.718220       -7.717012   1.000000   1.000000
    154         -7.718176       -7.716976   1.000000   1.000000
    155         -7.713847       -7.712883   1.000000   1.000000
    156         -7.713795       -7.712423   1.000000   1.000000
    157         -7.713736       -7.712368   1.000000   1.000000
    158         -7.708284       -7.704195   1.000000   1.000000
    159         -7.708244       -7.704161   1.000000   1.000000
    160         -7.694427       -7.693301   1.000000   1.000000
    161         -7.691547       -7.691269   1.000000   1.000000
    162         -7.689318       -7.688421   1.000000   1.000000
    163         -7.689294       -7.688397   1.000000   1.000000
    164         -7.685196       -7.685089   1.000000   1.000000
    165         -7.673326       -7.672015   1.000000   1.000000
    166         -7.673269       -7.671966   1.000000   1.000000
    167         -7.669374       -7.665763   1.000000   1.000000
    168         -7.669228       -7.665559   1.000000   1.000000
    169         -7.665052       -7.662044   1.000000   1.000000
    170         -7.665008       -7.661354   1.000000   1.000000
    171         -7.663176       -7.661320   1.000000   1.000000
    172         -7.648059       -7.646631   1.000000   1.000000
    173         -7.644799       -7.642562   1.000000   1.000000
    174         -7.637815       -7.636538   1.000000   1.000000
    175         -7.637719       -7.636467   1.000000   1.000000
    176         -7.635035       -7.634881   1.000000   1.000000
    177         -7.634921       -7.634773   1.000000   1.000000
    178         -7.629174       -7.628573   1.000000   1.000000
    179         -7.628655       -7.625468   1.000000   1.000000
    180         -7.628563       -7.625419   1.000000   1.000000
    181         -7.624416       -7.623636   1.000000   1.000000
    182         -7.621654       -7.618835   1.000000   1.000000
    183         -7.621617       -7.618775   1.000000   1.000000
    184         -7.610097       -7.606483   1.000000   1.000000
    185         -7.610042       -7.604733   1.000000   1.000000
    186         -7.606988       -7.604661   1.000000   1.000000
    187         -7.603461       -7.600123   1.000000   1.000000
    188         -7.603427       -7.600091   1.000000   1.000000
    189         -7.592883       -7.590418   1.000000   1.000000
    190         -7.592737       -7.590272   1.000000   1.000000
    191         -7.588120       -7.586168   1.000000   1.000000
    192         -7.586723       -7.585616   1.000000   1.000000
    193         -7.586055       -7.583586   1.000000   1.000000
    194         -7.586007       -7.583519   1.000000   1.000000
    195         -7.571997       -7.571647   1.000000   1.000000
    196         -7.567209       -7.566671   1.000000   1.000000
    197         -7.567157       -7.566620   1.000000   1.000000
    198         -7.559702       -7.559082   1.000000   1.000000
    199         -7.559581       -7.558962   1.000000   1.000000
    200         -7.552731       -7.551091   1.000000   1.000000
    201         -7.552559       -7.550931   1.000000   1.000000
    202         -7.550796       -7.550738   1.000000   1.000000
    203         -7.545787       -7.544924   1.000000   1.000000
    204         -7.544660       -7.544018   1.000000   1.000000
    205         -7.544245       -7.543432   1.000000   1.000000
    206         -7.544214       -7.543398   1.000000   1.000000
    207         -7.541089       -7.540402   1.000000   1.000000
    208         -7.538707       -7.537780   1.000000   1.000000
    209         -7.538686       -7.537760   1.000000   1.000000
    210         -7.533422       -7.532617   1.000000   1.000000
    211         -7.533389       -7.532576   1.000000   1.000000
    212         -7.526823       -7.526449   1.000000   1.000000
    213         -7.526515       -7.526331   1.000000   1.000000
    214         -7.522710       -7.521324   1.000000   1.000000
    215         -7.522604       -7.521227   1.000000   1.000000
    216         -7.516372       -7.510791   1.000000   1.000000
    217         -7.512575       -7.509967   1.000000   1.000000
    218         -7.512470       -7.509841   1.000000   1.000000
    219         -7.509957       -7.508060   1.000000   1.000000
    220         -7.508487       -7.500483   1.000000   1.000000
    221         -7.508441       -7.500445   1.000000   1.000000
    222         -7.489455       -7.488466   1.000000   1.000000
    223         -7.487787       -7.487544   1.000000   1.000000
    224         -7.478593       -7.477133   1.000000   1.000000
    225         -7.478553       -7.477096   1.000000   1.000000
    226         -7.477355       -7.475966   1.000000   1.000000
    227         -7.476430       -7.475949   1.000000   1.000000
    228         -7.476385       -7.475801   1.000000   1.000000
    229         -7.475972       -7.475760   1.000000   1.000000
    230         -7.471751       -7.471034   1.000000   1.000000
    231         -7.471700       -7.470976   1.000000   1.000000
    232         -7.465560       -7.463607   1.000000   1.000000
    233         -7.465469       -7.463535   1.000000   1.000000
    234         -7.461844       -7.460420   1.000000   1.000000
    235         -7.461755       -7.460319   1.000000   1.000000
    236         -7.456668       -7.456531   1.000000   1.000000
    237         -7.451838       -7.451678   1.000000   1.000000
    238         -7.445689       -7.444635   1.000000   1.000000
    239         -7.445612       -7.444554   1.000000   1.000000
    240         -7.438215       -7.436522   1.000000   1.000000
    241         -7.438203       -7.436511   1.000000   1.000000
    242         -7.432564       -7.432203   1.000000   1.000000
    243         -7.428813       -7.427071   1.000000   1.000000
    244         -7.428706       -7.426976   1.000000   1.000000
    245         -7.424115       -7.423202   1.000000   1.000000
    246         -7.415271       -7.415031   1.000000   1.000000
    247         -7.414207       -7.411740   1.000000   1.000000
    248         -7.414097       -7.411626   1.000000   1.000000
    249         -7.403670       -7.403509   1.000000   1.000000
    250         -7.399646       -7.397947   1.000000   1.000000
    251         -7.399615       -7.397911   1.000000   1.000000
    252         -7.395514       -7.394674   1.000000   1.000000
    253         -7.395488       -7.394055   1.000000   1.000000
    254         -7.395389       -7.394024   1.000000   1.000000
    255         -7.388457       -7.388001   1.000000   1.000000
    256         -7.388434       -7.387971   1.000000   1.000000
    257         -7.379468       -7.379405   1.000000   1.000000
    258         -7.372623       -7.372369   1.000000   1.000000
    259         -7.368509       -7.364652   1.000000   1.000000
    260         -7.368483       -7.364620   1.000000   1.000000
    261         -7.365852       -7.364032   1.000000   1.000000
    262         -7.360684       -7.356039   1.000000   1.000000
    263         -7.360669       -7.355979   1.000000   1.000000
    264         -7.354495       -7.354060   1.000000   1.000000
    265         -7.348661       -7.347931   1.000000   1.000000
    266         -7.348621       -7.347901   1.000000   1.000000
    267         -7.344436       -7.342061   1.000000   1.000000
    268         -7.344423       -7.342050   1.000000   1.000000
    269         -7.341798       -7.340893   1.000000   1.000000
    270         -7.339989       -7.339864   1.000000   1.000000
    271         -7.330214       -7.329126   1.000000   1.000000
    272         -7.329953       -7.328682   1.000000   1.000000
    273         -7.329919       -7.328644   1.000000   1.000000
    274         -7.327633       -7.324417   1.000000   1.000000
    275         -7.323148       -7.322423   1.000000   1.000000
    276         -7.323120       -7.322391   1.000000   1.000000
    277         -7.321035       -7.320984   1.000000   1.000000
    278         -7.315485       -7.314150   1.000000   1.000000
    279         -7.315406       -7.314080   1.000000   1.000000
    280         -7.307392       -7.306580   1.000000   1.000000
    281         -7.307070       -7.306267   1.000000   1.000000
    282         -7.306925       -7.306143   1.000000   1.000000
    283         -7.303120       -7.300439   1.000000   1.000000
    284         -7.303094       -7.300403   1.000000   1.000000
    285         -7.298431       -7.297188   1.000000   1.000000
    286         -7.298402       -7.295863   1.000000   1.000000
    287         -7.297904       -7.295851   1.000000   1.000000
    288         -7.288530       -7.287365   1.000000   1.000000
    289         -7.287288       -7.285649   1.000000   1.000000
    290         -7.287225       -7.285605   1.000000   1.000000
    291         -7.284787       -7.283590   1.000000   1.000000
    292         -7.284705       -7.283513   1.000000   1.000000
    293         -7.275555       -7.273709   1.000000   1.000000
    294         -7.275471       -7.273654   1.000000   1.000000
    295         -7.271098       -7.271003   1.000000   1.000000
    296         -7.268760       -7.266047   1.000000   1.000000
    297         -7.268686       -7.265969   1.000000   1.000000
    298         -7.265821       -7.265692   1.000000   1.000000
    299         -7.255632       -7.255147   1.000000   1.000000
    300         -7.253782       -7.253663   1.000000   1.000000
    301         -7.252571       -7.250603   1.000000   1.000000
    302         -7.250614       -7.249489   1.000000   1.000000
    303         -7.250579       -7.249448   1.000000   1.000000
    304         -7.240401       -7.239837   1.000000   1.000000
    305         -7.240367       -7.239804   1.000000   1.000000
    306         -7.234529       -7.233859   1.000000   1.000000
    307         -7.225536       -7.223776   1.000000   1.000000
    308         -7.225466       -7.223707   1.000000   1.000000
    309         -7.217511       -7.216524   1.000000   1.000000
    310         -7.217484       -7.216492   1.000000   1.000000
    311         -7.212784       -7.210183   1.000000   1.000000
    312         -7.208252       -7.206961   1.000000   1.000000
    313         -7.206039       -7.205706   1.000000   1.000000
    314         -7.206011       -7.205674   1.000000   1.000000
    315         -7.203109       -7.203061   1.000000   1.000000
    316         -7.201968       -7.200901   1.000000   1.000000
    317         -7.201907       -7.200842   1.000000   1.000000
    318         -7.196284       -7.196237   1.000000   1.000000
    319         -7.185901       -7.183953   1.000000   1.000000
    320         -7.185815       -7.183852   1.000000   1.000000
    321         -7.185112       -7.183674   1.000000   1.000000
    322         -7.174220       -7.173986   1.000000   1.000000
    323         -7.170570       -7.169513   1.000000   1.000000
    324         -7.170516       -7.169443   1.000000   1.000000
    325         -7.161759       -7.160945   1.000000   1.000000
    326         -7.156417       -7.156037   1.000000   1.000000
    327         -7.156252       -7.155873   1.000000   1.000000
    328         -7.150937       -7.149381   1.000000   1.000000
    329         -7.150932       -7.149364   1.000000   1.000000
    330         -7.144543       -7.142232   1.000000   1.000000
    331         -7.144510       -7.142205   1.000000   1.000000
    332         -7.135236       -7.134982   1.000000   1.000000
    333         -7.127134       -7.126926   1.000000   1.000000
    334         -7.119332       -7.118396   1.000000   1.000000
    335         -7.115544       -7.112140   1.000000   1.000000
    336         -7.115353       -7.111969   1.000000   1.000000
    337         -7.101959       -7.101074   1.000000   1.000000
    338         -7.101891       -7.100446   1.000000   1.000000
    339         -7.101410       -7.100375   1.000000   1.000000
    340         -7.096312       -7.095185   1.000000   1.000000
    341         -7.096253       -7.095172   1.000000   1.000000
    342         -7.095789       -7.095096   1.000000   1.000000
    343         -7.079764       -7.078953   1.000000   1.000000
    344         -7.079710       -7.078923   1.000000   1.000000
    345         -7.067028       -7.066826   1.000000   1.000000
    346         -7.066376       -7.065021   1.000000   1.000000
    347         -7.066272       -7.064912   1.000000   1.000000
    348         -7.058019       -7.057725   1.000000   1.000000
    349         -7.056540       -7.055997   1.000000   1.000000
    350         -7.056302       -7.055772   1.000000   1.000000
    351         -7.052316       -7.049021   1.000000   1.000000
    352         -7.052157       -7.048883   1.000000   1.000000
    353         -7.044044       -7.043533   1.000000   1.000000
    354         -7.039086       -7.037677   1.000000   1.000000
    355         -7.039062       -7.037652   1.000000   1.000000
    356         -7.036153       -7.035832   1.000000   1.000000
    357         -7.033223       -7.032848   1.000000   1.000000
    358         -7.025561       -7.025297   1.000000   1.000000
    359         -7.025519       -7.025255   1.000000   1.000000
    360         -7.018808       -7.018052   1.000000   1.000000
    361         -7.018769       -7.018020   1.000000   1.000000
    362         -7.006538       -7.006278   1.000000   1.000000
    363         -7.003826       -7.003578   1.000000   1.000000
    364         -7.001135       -7.000264   1.000000   1.000000
    365         -7.001060       -7.000192   1.000000   1.000000
    366         -6.982704       -6.980874   1.000000   1.000000
    367         -6.982650       -6.980790   1.000000   1.000000
    368         -6.972625       -6.972420   1.000000   1.000000
    369         -6.965964       -6.965524   1.000000   1.000000
    370         -6.956175       -6.952796   1.000000   1.000000
    371         -6.955918       -6.952223   1.000000   1.000000
    372         -6.954325       -6.952012   1.000000   1.000000
    373         -6.946012       -6.945685   1.000000   1.000000
    374         -6.943199       -6.942312   1.000000   1.000000
    375         -6.943111       -6.942265   1.000000   1.000000
    376         -6.933020       -6.931114   1.000000   1.000000
    377         -6.932858       -6.930956   1.000000   1.000000
    378         -6.929356       -6.928868   1.000000   1.000000
    379         -6.924751       -6.924371   1.000000   1.000000
    380         -6.924720       -6.924343   1.000000   1.000000
    381         -6.908924       -6.907753   1.000000   1.000000
    382         -6.898127       -6.896949   1.000000   1.000000
    383         -6.894438       -6.891938   1.000000   1.000000
    384         -6.894329       -6.891806   1.000000   1.000000
    385         -6.889965       -6.888850   1.000000   1.000000
    386         -6.889770       -6.888638   1.000000   1.000000
    387         -6.880305       -6.879114   1.000000   1.000000
    388         -6.880073       -6.878666   1.000000   1.000000
    389         -6.879324       -6.878454   1.000000   1.000000
    390         -6.871379       -6.870814   1.000000   1.000000
    391         -6.864633       -6.862213   1.000000   1.000000
    392         -6.864484       -6.862042   1.000000   1.000000
    393         -6.853728       -6.850635   1.000000   1.000000
    394         -6.853637       -6.850561   1.000000   1.000000
    395         -6.844190       -6.843470   1.000000   1.000000
    396         -6.837917       -6.837575   1.000000   1.000000
    397         -6.836526       -6.836196   1.000000   1.000000
    398         -6.836475       -6.836144   1.000000   1.000000
    399         -6.824983       -6.824897   1.000000   1.000000
    400         -6.819260       -6.818630   1.000000   1.000000
    401         -6.819201       -6.818567   1.000000   1.000000
    402         -6.812870       -6.811740   1.000000   1.000000
    403         -6.805186       -6.804874   1.000000   1.000000
    404         -6.805163       -6.804850   1.000000   1.000000
    405         -6.793557       -6.792816   1.000000   1.000000
    406         -6.785385       -6.785032   1.000000   1.000000
    407         -6.784084       -6.783692   1.000000   1.000000
    408         -6.782974       -6.782773   1.000000   1.000000
    409         -6.782900       -6.782698   1.000000   1.000000
    410         -6.773841       -6.773223   1.000000   1.000000
    411         -6.773789       -6.773202   1.000000   1.000000
    412         -6.764892       -6.763371   1.000000   1.000000
    413         -6.764827       -6.762977   1.000000   1.000000
    414         -6.764062       -6.762944   1.000000   1.000000
    415         -6.744871       -6.743564   1.000000   1.000000
    416         -6.744801       -6.743474   1.000000   1.000000
    417         -6.743308       -6.742939   1.000000   1.000000
    418         -6.743090       -6.742191   1.000000   1.000000
    419         -6.733251       -6.732916   1.000000   1.000000
    420         -6.733219       -6.732887   1.000000   1.000000
    421         -6.724563       -6.724369   1.000000   1.000000
    422         -6.724419       -6.724226   1.000000   1.000000
    423         -6.709863       -6.709649   1.000000   1.000000
    424         -6.708759       -6.707996   1.000000   1.000000
    425         -6.708391       -6.707940   1.000000   1.000000
    426         -6.708337       -6.706151   1.000000   1.000000
    427         -6.700469       -6.699129   1.000000   1.000000
    428         -6.700459       -6.699123   1.000000   1.000000
    429         -6.693527       -6.693280   1.000000   1.000000
    430         -6.693508       -6.693272   1.000000   1.000000
    431         -6.689575       -6.689336   1.000000   1.000000
    432         -6.682864       -6.682105   1.000000   1.000000
    433         -6.682854       -6.682098   1.000000   1.000000
    434         -6.681758       -6.681596   1.000000   1.000000
    435         -6.677299       -6.676431   1.000000   1.000000
    436         -6.664086       -6.663684   1.000000   1.000000
    437         -6.664008       -6.663554   1.000000   1.000000
    438         -6.663163       -6.661482   1.000000   1.000000
    439         -6.663157       -6.660184   1.000000   1.000000
    440         -6.661925       -6.660121   1.000000   1.000000
    441         -6.652336       -6.652231   1.000000   1.000000
    442         -6.645328       -6.644579   1.000000   1.000000
    443         -6.645293       -6.644566   1.000000   1.000000
    444         -6.642378       -6.641239   1.000000   1.000000
    445         -6.639176       -6.639020   1.000000   1.000000
    446         -6.639150       -6.639004   1.000000   1.000000
    447         -6.637336       -6.637242   1.000000   1.000000
    448         -6.634760       -6.633877   1.000000   1.000000
    449         -6.634665       -6.633790   1.000000   1.000000
    450         -6.630986       -6.630950   1.000000   1.000000
    451         -6.629027       -6.628970   1.000000   1.000000
    452         -6.629001       -6.628944   1.000000   1.000000
    453         -6.625266       -6.625135   1.000000   1.000000
    454         -6.617628       -6.617280   1.000000   1.000000
    455         -6.617590       -6.617235   1.000000   1.000000
    456         -6.613678       -6.613440   1.000000   1.000000
    457         -6.613616       -6.613382   1.000000   1.000000
    458         -6.612770       -6.612636   1.000000   1.000000
    459         -6.612698       -6.612406   1.000000   1.000000
    460         -6.611368       -6.611229   1.000000   1.000000
    461         -6.600664       -6.600327   1.000000   1.000000
    462         -6.600471       -6.600130   1.000000   1.000000
    463         -6.598429       -6.598390   1.000000   1.000000
    464         -6.596756       -6.596704   1.000000   1.000000