       N       E                     dE             d eps       ncg     rms          ort
SDA:   1    -0.123655689753E+04   -0.12366E+04   -0.47782E-03  1056   0.159E-02 0.000E+00
DMP:   2    -0.123655728263E+04   -0.38510E-03   -0.37808E-03  1056   0.830E-03 0.975E-03
DMP:   3    -0.123655759897E+04   -0.31634E-03   -0.26744E-03  1056   0.517E-03 0.847E-03
DMP:   4    -0.123655782591E+04   -0.22694E-03   -0.16905E-03  1056   0.290E-03 0.620E-03
DMP:   5    -0.123655796891E+04   -0.14301E-03   -0.97683E-04  1056   0.154E-03 0.389E-03
DMP:   6    -0.123655805103E+04   -0.82112E-04   -0.52629E-04  1056   0.777E-04 0.221E-03
DMP:   7    -0.123655809517E+04   -0.44146E-04   -0.27418E-04  1056   0.390E-04 0.119E-03
DMP:   8    -0.123655811813E+04   -0.22952E-04   -0.13835E-04  1056   0.190E-04 0.614E-04
DMP:   9    -0.123655812967E+04   -0.11547E-04   -0.68019E-05  1056   0.910E-05 0.307E-04
DMP:  10    -0.123655813535E+04   -0.56757E-05   -0.33025E-05  1056   0.436E-05 0.150E-04
DMP:  11    -0.123655813811E+04   -0.27590E-05   -0.15894E-05  1056   0.208E-05 0.728E-05
DMP:  12    -0.123655813944E+04   -0.13298E-05   -0.77127E-06  1056   0.102E-05 0.351E-05
DMP:  13    -0.123655814009E+04   -0.64907E-06   -0.38742E-06  1056   0.526E-06 0.173E-05
   1 F= -.12365581E+04 E0= -.12365581E+04  d E =-.123656E+04  mag=     2.0000
       N       E                     dE             d eps       ncg     rms          ort
SDA:   1    -0.123648338555E+04    0.74754E-01   -0.77812E-01  1056   0.259E+00 0.000E+00
DMP:   2    -0.123653333209E+04   -0.49947E-01   -0.26527E-01  1056   0.559E-01 0.736E-01
DMP:   3    -0.123654839116E+04   -0.15059E-01   -0.11475E-01  1056   0.330E-01 0.120E-01
DMP:   4    -0.123655517675E+04   -0.67856E-02   -0.40161E-02  1056   0.103E-01 0.699E-02
DMP:   5    -0.123655707255E+04   -0.18958E-02   -0.12509E-02  1056   0.450E-02-0.747E-03
DMP:   6    -0.123655764455E+04   -0.57200E-03   -0.67114E-03  1056   0.240E-02-0.359E-03
DMP:   7    -0.123655799539E+04   -0.35083E-03   -0.35310E-03  1056   0.113E-02 0.102E-03
DMP:   8    -0.123655819834E+04   -0.20296E-03   -0.18494E-03  1056   0.538E-03 0.178E-03
DMP:   9    -0.123655831163E+04   -0.11328E-03   -0.88021E-04  1056   0.232E-03 0.140E-03
DMP:  10    -0.123655836574E+04   -0.54113E-04   -0.36171E-04  1056   0.910E-04 0.670E-04
DMP:  11    -0.123655838781E+04   -0.22068E-04   -0.16137E-04  1056   0.425E-04 0.256E-04
DMP:  12    -0.123655839785E+04   -0.10039E-04   -0.74866E-05  1056   0.194E-04 0.127E-04
DMP:  13    -0.123655840243E+04   -0.45797E-05   -0.35748E-05  1056   0.940E-05 0.569E-05
DMP:  14    -0.123655840475E+04   -0.23162E-05   -0.19623E-05  1056   0.487E-05 0.377E-05
DMP:  15    -0.123655840615E+04   -0.14027E-05   -0.11234E-05  1056   0.247E-05 0.288E-05
DMP:  16    -0.123655840702E+04   -0.87384E-06   -0.68647E-06  1056   0.140E-05 0.202E-05
   2 F= -.12365584E+04 E0= -.12365584E+04  d E =-.266936E-03  mag=     2.0000
       N       E                     dE             d eps       ncg     rms          ort
SDA:   1    -0.123654533686E+04    0.13069E-01   -0.13867E-01  1056   0.462E-01 0.000E+00
DMP:   2    -0.123655412397E+04   -0.87871E-02   -0.46344E-02  1056   0.999E-02 0.124E-01
DMP:   3    -0.123655679784E+04   -0.26739E-02   -0.21916E-02  1056   0.626E-02 0.238E-02
DMP:   4    -0.123655809657E+04   -0.12987E-02   -0.74745E-03  1056   0.189E-02 0.135E-02
DMP:   5    -0.123655845741E+04   -0.36084E-03   -0.27238E-03  1056   0.946E-03-0.860E-04
DMP:   6    -0.123655858866E+04   -0.13125E-03   -0.11353E-03  1056   0.393E-03-0.334E-04
DMP:   7    -0.123655864141E+04   -0.52756E-04   -0.57996E-04  1056   0.205E-03-0.269E-04
DMP:   8    -0.123655867401E+04   -0.32593E-04   -0.31943E-04  1056   0.960E-04 0.237E-04
DMP:   9    -0.123655869257E+04   -0.18567E-04   -0.14991E-04  1056   0.423E-04 0.173E-04
DMP:  10    -0.123655870154E+04   -0.89675E-05   -0.70964E-05  1056   0.193E-04 0.997E-05
DMP:  11    -0.123655870582E+04   -0.42834E-05   -0.29552E-05  1056   0.769E-05 0.489E-05
DMP:  12    -0.123655870754E+04   -0.17176E-05   -0.12276E-05  1056   0.340E-05 0.157E-05
DMP:  13    -0.123655870828E+04   -0.73962E-06   -0.62177E-06  1056   0.171E-05 0.825E-06
   3 F= -.12365587E+04 E0= -.12365587E+04  d E =-.568194E-03  mag=     2.0000
       N       E                     dE             d eps       ncg     rms          ort
SDA:   1    -0.123652381863E+04    0.34889E-01   -0.28323E-01  1056   0.944E-01 0.000E+00
DMP:   2    -0.123654472147E+04   -0.20903E-01   -0.15115E-01  1056   0.305E-01 0.449E-01
DMP:   3    -0.123655472734E+04   -0.10006E-01   -0.54652E-02  1056   0.110E-01 0.163E-01
DMP:   4    -0.123655809511E+04   -0.33678E-02   -0.16532E-02  1056   0.364E-02 0.424E-02
DMP:   5    -0.123655894365E+04   -0.84854E-03   -0.45541E-03  1056   0.145E-02 0.146E-03
DMP:   6    -0.123655913315E+04   -0.18950E-03   -0.19840E-03  1056   0.775E-03-0.257E-03
DMP:   7    -0.123655923834E+04   -0.10519E-03   -0.15089E-03  1056   0.485E-03 0.403E-04
DMP:   8    -0.123655933970E+04   -0.10136E-03   -0.91352E-04  1056   0.227E-03 0.175E-03
DMP:   9    -0.123655940119E+04   -0.61494E-04   -0.41865E-04  1056   0.926E-04 0.106E-03
DMP:  10    -0.123655942920E+04   -0.28012E-04   -0.17424E-04  1056   0.374E-04 0.467E-04
DMP:  11    -0.123655944052E+04   -0.11315E-04   -0.66690E-05  1056   0.149E-04 0.167E-04
DMP:  12    -0.123655944462E+04   -0.40965E-05   -0.26190E-05  1056   0.657E-05 0.488E-05
DMP:  13    -0.123655944618E+04   -0.15664E-05   -0.12719E-05  1056   0.341E-05 0.187E-05
DMP:  14    -0.123655944701E+04   -0.82690E-06   -0.70777E-06  1056   0.174E-05 0.140E-05
   4 F= -.12365594E+04 E0= -.12365594E+04  d E =-.738728E-03  mag=     2.0000
       N       E                     dE             d eps       ncg     rms          ort
SDA:   1    -0.123654344476E+04    0.16001E-01   -0.13004E-01  1056   0.433E-01 0.000E+00
DMP:   2    -0.123655303170E+04   -0.95869E-02   -0.69490E-02  1056   0.141E-01 0.206E-01
DMP:   3    -0.123655763839E+04   -0.46067E-02   -0.25308E-02  1056   0.510E-02 0.755E-02
DMP:   4    -0.123655919806E+04   -0.15597E-02   -0.76421E-03  1056   0.168E-02 0.196E-02
DMP:   5    -0.123655959410E+04   -0.39604E-03   -0.21548E-03  1056   0.677E-03 0.926E-04
DMP:   6    -0.123655968521E+04   -0.91112E-04   -0.90908E-04  1056   0.353E-03-0.112E-03
DMP:   7    -0.123655973317E+04   -0.47963E-04   -0.69329E-04  1056   0.224E-03 0.171E-04
DMP:   8    -0.123655977967E+04   -0.46500E-04   -0.41972E-04  1056   0.105E-03 0.801E-04
DMP:   9    -0.123655980796E+04   -0.28293E-04   -0.19425E-04  1056   0.430E-04 0.492E-04
DMP:  10    -0.123655982104E+04   -0.13073E-04   -0.81394E-05  1056   0.174E-04 0.220E-04
DMP:  11    -0.123655982638E+04   -0.53422E-05   -0.32230E-05  1056   0.719E-05 0.804E-05
DMP:  12    -0.123655982837E+04   -0.19947E-05   -0.12603E-05  1056   0.312E-05 0.246E-05
DMP:  13    -0.123655982913E+04   -0.75586E-06   -0.61704E-06  1056   0.163E-05 0.961E-06
   5 F= -.12365598E+04 E0= -.12365598E+04  d E =-.112085E-02  mag=     2.0000
