 vasp.6.4.2 20Jul23 (build Oct 07 2023 16:32:06) gamma-only                     
  
 executed on             bridges2 date 2025.04.27  23:05:25
 running  768 mpi-ranks, on    6 nodes
 distrk:  each k-point on  384 cores,    2 groups
 distr:  one band on NCORE=   8 cores,   48 groups


--------------------------------------------------------------------------------------------------------


 INCAR:
   SYSTEM = zno
   PREC = Normal
   ISTART = 1
   ICHARG = 0
   ISPIN = 2
   MAGMOM = 26*0.0 1*1.0 2*0.0 1*1.0 11*0.0 1*1.0 78*0.0 1*1.1 2*0.0 1*1.0 11*0.0 1*1.0 50*0.0 1*1.0 4*0.0 1*1.4
   NELECT = 1728
   NCORE = 8
   KPAR = 2
   PRECFOCK = fast
   ENCUT = 400
   NELM = 1500
   NELMIN = 4
   EDIFF = 1E-06
   LREAL = Auto
   EDIFFG = -1E-02
   NSW = 5
   IBRION = 2
   ISIF = 2
   ISYM = 3
   POTIM = 0.5
   ISMEAR = 0
   SIGMA = 0.005
   LWAVE = T
   LCHARG = T
   LVHAR = T
   LVTOT = F
   LELF = F
   LORBIT = 11
   ALGO = Damped
   TIME = 0.3
   LHFCALC = T
   HFSCREEN = 0.2
   AEXX = 0.375
   GGA = PE

 POTCAR:    PAW_PBE Zn 06Sep2000                  
 POTCAR:    PAW_PBE O 08Apr2002                   
 POTCAR:    PAW_PBE Mo_sv 02Feb2006               
 -----------------------------------------------------------------------------
|                                                                             |
|           W    W    AA    RRRRR   N    N  II  N    N   GGGG   !!!           |
|           W    W   A  A   R    R  NN   N  II  NN   N  G    G  !!!           |
|           W    W  A    A  R    R  N N  N  II  N N  N  G       !!!           |
|           W WW W  AAAAAA  RRRRR   N  N N  II  N  N N  G  GGG   !            |
|           WW  WW  A    A  R   R   N   NN  II  N   NN  G    G                |
|           W    W  A    A  R    R  N    N  II  N    N   GGGG   !!!           |
|                                                                             |
|     For optimal performance we recommend to set                             |
|       NCORE = 2 up to number-of-cores-per-socket                            |
|     NCORE specifies how many cores store one orbital (NPAR=cpu/NCORE).      |
|     This setting can greatly improve the performance of VASP for DFT.       |
|     The default, NCORE=1 might be grossly inefficient on modern             |
|     multi-core architectures or massively parallel machines. Do your        |
|     own testing! More info at https://www.vasp.at/wiki/index.php/NCORE      |
|     Unfortunately you need to use the default for GW and RPA                |
|     calculations (for HF NCORE is supported but not extensively tested      |
|     yet).                                                                   |
|                                                                             |
 -----------------------------------------------------------------------------

 POTCAR:    PAW_PBE Zn 06Sep2000                  
   SHA256 =  501fddbd8274dd8e9725d4f3de27861d7f1e553a7e18441bc79fed8f346e7f23 Zn/POTCAR             
   COPYR  = (c) Copyright 06Sep2000 Georg Kresse                                                    
   COPYR  = This file is part of the software VASP. Any use, copying, and all other rights are regul
   COPYR  = If you do not have a valid VASP license, you may not use, copy or distribute this file. 
   VRHFIN =Zn: d10 p2                                                                               
   LEXCH  = PE                                                                                      
   EATOM  =  1748.8345 eV,  128.5357 Ry                                                             
                                                                                                    
   TITEL  = PAW_PBE Zn 06Sep2000                                                                    
   LULTRA =        F    use ultrasoft PP ?                                                          
   IUNSCR =        1    unscreen: 0-lin 1-nonlin 2-no                                               
   RPACOR =    2.000    partial core radius                                                         
   POMASS =   65.390; ZVAL   =   12.000    mass and valenz                                          
   RCORE  =    2.300    outmost cutoff radius                                                       
   RWIGS  =    2.400; RWIGS  =    1.270    wigner-seitz radius (au A)                               
   ENMAX  =  276.723; ENMIN  =  207.542 eV                                                          
   RCLOC  =    1.828    cutoff for local pot                                                        
   LCOR   =        T    correct aug charges                                                         
   LPAW   =        T    paw PP                                                                      
   EAUG   =  575.892                                                                                
   DEXC   =    0.000                                                                                
   RMAX   =    2.347    core radius for proj-oper                                                   
   RAUG   =    1.300    factor for augmentation sphere                                              
   RDEP   =    2.324    radius for radial grids                                                     
   RDEPT  =    1.788    core radius for aug-charge                                                  
                                                                                                    
   Atomic configuration                                                                             
    9 entries                                                                                       
     n  l   j            E        occ.                                                              
     1  0  0.50     -9524.6913   2.0000                                                             
     2  0  0.50     -1158.1882   2.0000                                                             
     2  1  1.50     -1003.8506   6.0000                                                             
     3  0  0.50      -129.2194   2.0000                                                             
     3  1  1.50       -83.3890   6.0000                                                             
     3  2  2.50       -10.1410  10.0000                                                             
     4  0  0.50        -5.9785   2.0000                                                             
     4  1  0.50        -4.0817   0.0000                                                             
     4  3  2.50        -1.3606   0.0000                                                             
   Description                                                                                      
     l       E           TYP  RCUT    TYP  RCUT                                                     
     2    -10.1410010     23  2.300                                                                 
     2    -11.5015836     23  2.300                                                                 
     0     -5.9785163     23  2.300                                                                 
     0      1.1858015     23  2.300                                                                 
     1     -2.7211652     23  2.300                                                                 
     1     13.2444212     23  2.300                                                                 
  local pseudopotential read in
  partial core-charges read in
  partial kinetic energy density read in
  atomic valenz-charges read in
  non local Contribution for L=           2  read in
    real space projection operators read in
  non local Contribution for L=           2  read in
    real space projection operators read in
  non local Contribution for L=           0  read in
    real space projection operators read in
  non local Contribution for L=           0  read in
    real space projection operators read in
  non local Contribution for L=           1  read in
    real space projection operators read in
  non local Contribution for L=           1  read in
    real space projection operators read in
    PAW grid and wavefunctions read in
 
   number of l-projection  operators is LMAX  =           6
   number of lm-projection operators is LMMAX =          18
 
 POTCAR:    PAW_PBE O 08Apr2002                   
   SHA256 =  818f92134a0a090dccd8ba1447fa70422a3b330e708bb4f08108d8ae51209ddf O/POTCAR              
   COPYR  = (c) Copyright 08Apr2002 Georg Kresse                                                    
   COPYR  = This file is part of the software VASP. Any use, copying, and all other rights are regul
   COPYR  = If you do not have a valid VASP license, you may not use, copy or distribute this file. 
   VRHFIN =O: s2p4                                                                                  
   LEXCH  = PE                                                                                      
   EATOM  =   432.3788 eV,   31.7789 Ry                                                             
                                                                                                    
   TITEL  = PAW_PBE O 08Apr2002                                                                     
   LULTRA =        F    use ultrasoft PP ?                                                          
   IUNSCR =        1    unscreen: 0-lin 1-nonlin 2-no                                               
   RPACOR =    1.200    partial core radius                                                         
   POMASS =   16.000; ZVAL   =    6.000    mass and valenz                                          
   RCORE  =    1.520    outmost cutoff radius                                                       
   RWIGS  =    1.550; RWIGS  =    0.820    wigner-seitz radius (au A)                               
   ENMAX  =  400.000; ENMIN  =  300.000 eV                                                          
   ICORE  =        2    local potential                                                             
   LCOR   =        T    correct aug charges                                                         
   LPAW   =        T    paw PP                                                                      
   EAUG   =  605.392                                                                                
   DEXC   =    0.000                                                                                
   RMAX   =    1.553    core radius for proj-oper                                                   
   RAUG   =    1.300    factor for augmentation sphere                                              
   RDEP   =    1.550    radius for radial grids                                                     
   RDEPT  =    1.329    core radius for aug-charge                                                  
                                                                                                    
   Atomic configuration                                                                             
    4 entries                                                                                       
     n  l   j            E        occ.                                                              
     1  0  0.50      -514.6923   2.0000                                                             
     2  0  0.50       -23.9615   2.0000                                                             
     2  1  0.50        -9.0305   4.0000                                                             
     3  2  1.50        -9.5241   0.0000                                                             
   Description                                                                                      
     l       E           TYP  RCUT    TYP  RCUT                                                     
     0    -23.9615318     23  1.200                                                                 
     0     -9.5240782     23  1.200                                                                 
     1     -9.0304911     23  1.520                                                                 
     1      8.1634956     23  1.520                                                                 
     2     -9.5240782      7  1.500                                                                 
  local pseudopotential read in
  partial core-charges read in
  partial kinetic energy density read in
  kinetic energy density of atom read in
  atomic valenz-charges read in
  non local Contribution for L=           0  read in
    real space projection operators read in
  non local Contribution for L=           0  read in
    real space projection operators read in
  non local Contribution for L=           1  read in
    real space projection operators read in
  non local Contribution for L=           1  read in
    real space projection operators read in
    PAW grid and wavefunctions read in
 
   number of l-projection  operators is LMAX  =           4
   number of lm-projection operators is LMMAX =           8
 
 POTCAR:    PAW_PBE Mo_sv 02Feb2006               
   SHA256 =  2731df97e41766cc617548c5a8267718fdef1f509ac6bafa01e745abea2bdfaa Mo_sv/POTCAR          
   COPYR  = (c) Copyright 02Feb2006 Georg Kresse                                                    
   COPYR  = This file is part of the software VASP. Any use, copying, and all other rights are regul
   COPYR  = If you do not have a valid VASP license, you may not use, copy or distribute this file. 
   VRHFIN =Mo: 4p5s4d                                                                               
   LEXCH  = PE                                                                                      
   EATOM  =  1862.2866 eV,  136.8742 Ry                                                             
                                                                                                    
   TITEL  = PAW_PBE Mo_sv 02Feb2006                                                                 
   LULTRA =        F    use ultrasoft PP ?                                                          
   IUNSCR =        1    unscreen: 0-lin 1-nonlin 2-no                                               
   RPACOR =    2.200    partial core radius                                                         
   POMASS =   95.940; ZVAL   =   14.000    mass and valenz                                          
   RCORE  =    2.500    outmost cutoff radius                                                       
   RWIGS  =    2.750; RWIGS  =    1.455    wigner-seitz radius (au A)                               
   ENMAX  =  242.676; ENMIN  =  182.007 eV                                                          
   ICORE  =        3    local potential                                                             
   LCOR   =        T    correct aug charges                                                         
   LPAW   =        T    paw PP                                                                      
   EAUG   =  446.014                                                                                
   DEXC   =    0.000                                                                                
   RMAX   =    2.563    core radius for proj-oper                                                   
   RAUG   =    1.300    factor for augmentation sphere                                              
   RDEP   =    2.641    radius for radial grids                                                     
   RDEPT  =    2.031    core radius for aug-charge                                                  
                                                                                                    
   Atomic configuration                                                                             
   11 entries                                                                                       
     n  l   j            E        occ.                                                              
     1  0  0.50    -19819.0341   2.0000                                                             
     2  0  0.50     -2799.0127   2.0000                                                             
     2  1  1.50     -2502.0276   6.0000                                                             
     3  0  0.50      -476.4449   2.0000                                                             
     3  1  1.50      -379.1496   6.0000                                                             
     3  2  2.50      -220.9367  10.0000                                                             
     4  0  0.50       -64.3378   2.0000                                                             
     5  0  0.50        -4.0862   1.0000                                                             
     4  1  1.50       -38.4773   6.0000                                                             
     4  2  2.50        -3.7535   5.0000                                                             
     4  3  2.50        -1.3606   0.0000                                                             
   Description                                                                                      
     l       E           TYP  RCUT    TYP  RCUT                                                     
     0    -64.3377829     23  2.100                                                                 
     0     -4.0861640     23  2.400                                                                 
     1    -38.4772993     23  2.100                                                                 
     1     13.6058260     23  2.100                                                                 
     2     -3.7534941     23  2.400                                                                 
     2     -5.1140767     23  2.400                                                                 
     3     -4.0817478     23  2.500                                                                 
  local pseudopotential read in
  partial core-charges read in
  partial kinetic energy density read in
  atomic valenz-charges read in
  non local Contribution for L=           0  read in
    real space projection operators read in
  non local Contribution for L=           0  read in
    real space projection operators read in
  non local Contribution for L=           1  read in
    real space projection operators read in
  non local Contribution for L=           1  read in
    real space projection operators read in
  non local Contribution for L=           2  read in
    real space projection operators read in
  non local Contribution for L=           2  read in
    real space projection operators read in
    PAW grid and wavefunctions read in
 
   number of l-projection  operators is LMAX  =           6
   number of lm-projection operators is LMMAX =          18
 
 Optimization of the real space projectors (new method)

 maximal supplied QI-value         = 16.25
 optimisation between [QCUT,QGAM] = [ 10.24, 20.48] = [ 29.35,117.42] Ry 
 Optimized for a Real-space Cutoff    1.38 Angstroem

   l    n(q)    QCUT    max X(q) W(low)/X(q) W(high)/X(q)  e(spline) 
   2      7    10.239    46.356    0.21E-03    0.48E-03    0.10E-06
   2      7    10.239    41.843    0.21E-03    0.50E-03    0.10E-06
   0      8    10.239    48.958    0.37E-03    0.79E-04    0.11E-06
   0      8    10.239    32.776    0.35E-03    0.73E-04    0.10E-06
   1      8    10.239    17.787    0.49E-03    0.70E-03    0.14E-06
   1      8    10.239    14.435    0.42E-03    0.61E-03    0.13E-06
 Optimization of the real space projectors (new method)

 maximal supplied QI-value         = 24.76
 optimisation between [QCUT,QGAM] = [ 10.15, 20.30] = [ 28.85,115.39] Ry 
 Optimized for a Real-space Cutoff    1.38 Angstroem

   l    n(q)    QCUT    max X(q) W(low)/X(q) W(high)/X(q)  e(spline) 
   0      8    10.150    20.381    0.22E-03    0.32E-03    0.29E-06
   0      8    10.150    15.268    0.23E-03    0.35E-03    0.30E-06
   1      8    10.150     5.964    0.46E-03    0.53E-03    0.21E-06
   1      8    10.150     5.382    0.38E-03    0.45E-03    0.19E-06
 Optimization of the real space projectors (new method)

 maximal supplied QI-value         = 15.12
 optimisation between [QCUT,QGAM] = [ 10.13, 20.41] = [ 28.73,116.64] Ry 
 Optimized for a Real-space Cutoff    1.55 Angstroem

   l    n(q)    QCUT    max X(q) W(low)/X(q) W(high)/X(q)  e(spline) 
   0      9    10.129     3.559    0.15E-04    0.17E-04    0.57E-07
   0      9    10.129    20.730    0.48E-04    0.15E-04    0.66E-07
   1      9    10.129     3.279    0.16E-05    0.10E-04    0.27E-07
   1      9    10.129     4.693    0.32E-03    0.57E-04    0.21E-06
   2      9    10.129    67.616    0.48E-03    0.12E-03    0.44E-06
   2      9    10.129    62.420    0.48E-03    0.12E-03    0.45E-06
  PAW_PBE Zn 06Sep2000                  :
 energy of atom  1       EATOM=-1748.8345
 kinetic energy error for atom=    0.0107 (will be added to EATOM!!)
  PAW_PBE O 08Apr2002                   :
 energy of atom  2       EATOM= -432.3788
 kinetic energy error for atom=    0.1156 (will be added to EATOM!!)
  PAW_PBE Mo_sv 02Feb2006               :
 energy of atom  3       EATOM=-1862.2866
 kinetic energy error for atom=    0.0181 (will be added to EATOM!!)
 
 
 POSCAR: Zn2 O2
  positions in direct lattice
  velocities in cartesian coordinates
 exchange correlation table for  LEXCH =        8
   RHO(1)=    0.500       N(1)  =     2000
   RHO(2)=  100.500       N(2)  =     4000
 


--------------------------------------------------------------------------------------------------------


 ion  position               nearest neighbor table
   1  0.083  0.167  0.002- 149 1.97 161 1.97 164 1.97  96 1.99
   2  0.083  0.166  0.335- 147 1.97 159 1.97 162 1.97  97 1.99
   3  0.083  0.167  0.669-  98 1.98 148 1.98 160 1.98 163 1.98
   4  0.084  0.417  0.002- 167 1.97 164 1.97 152 1.98  99 1.99
   5  0.085  0.417  0.335- 162 1.96 165 1.96 150 1.98 100 1.99
   6  0.084  0.417  0.670- 101 1.97 166 1.97 163 1.98 151 2.00
   7  0.084  0.667  0.002- 167 1.97 158 1.97 155 1.98 102 1.99
   8  0.085  0.668  0.335- 156 1.96 165 1.96 153 1.98 103 1.99
   9  0.084  0.667  0.670- 104 1.97 166 1.97 157 1.98 154 2.00
  10  0.083  0.917  0.002- 161 1.97 146 1.97 158 1.97 105 1.99
  11  0.083  0.917  0.335- 144 1.97 159 1.97 156 1.97 106 1.99
  12  0.083  0.917  0.669- 107 1.98 145 1.98 160 1.98 157 1.98
  13  0.333  0.166  0.002- 161 1.97 176 1.98 173 1.98 108 1.99
  14  0.331  0.166  0.335- 159 1.96 174 1.97 171 1.97 109 1.99
  15  0.332  0.166  0.671- 110 1.97 160 1.97 175 1.99 172 1.99
  16  0.333  0.417  0.002- 179 1.97 164 1.97 176 1.98 111 1.99
  17  0.332  0.417  0.335- 162 1.96 177 1.96 174 1.98 112 1.99
  18  0.333  0.417  0.670- 113 1.97 178 1.97 163 1.98 175 2.00
  19  0.333  0.667  0.002- 170 1.97 167 1.97 179 1.97 114 1.99
  20  0.333  0.667  0.335- 165 1.97 177 1.97 168 1.97 115 1.99
  21  0.333  0.667  0.670- 116 1.98 166 1.98 178 1.98 169 1.98
  22  0.333  0.916  0.002- 170 1.97 158 1.97 173 1.98 117 1.99
  23  0.332  0.915  0.335- 156 1.96 168 1.96 171 1.98 118 1.99
  24  0.333  0.916  0.670- 119 1.97 169 1.97 157 1.98 172 2.00
  25  0.583  0.167  0.006- 173 1.97 185 1.97 188 1.98 120 2.01
  26  0.579  0.159  0.330- 171 1.92 183 1.92 186 1.98 121 2.11 192 3.13
  27  0.582  0.165  0.669- 122 1.96 172 1.96 184 1.96 187 2.09
  28  0.583  0.417  0.006- 191 1.97 176 1.97 188 1.98 123 2.01
  29  0.579  0.421  0.330- 189 1.92 174 1.92 186 1.98 124 2.11 192 3.13
  30  0.582  0.418  0.669- 125 1.96 190 1.96 175 1.96 187 2.09
  31  0.583  0.667  0.002- 179 1.97 182 1.97 191 1.98 126 1.99
  32  0.583  0.668  0.335- 180 1.96 177 1.96 189 1.98 127 1.99
  33  0.583  0.667  0.670- 128 1.97 178 1.97 181 1.98 190 2.00
  34  0.583  0.916  0.002- 170 1.97 182 1.97 185 1.98 129 1.99
  35  0.583  0.915  0.335- 180 1.96 168 1.96 183 1.98 130 1.99
  36  0.583  0.916  0.670- 131 1.97 169 1.97 181 1.98 184 2.00
  37  0.834  0.166  0.002- 149 1.97 152 1.98 185 1.98 132 1.99
  38  0.834  0.166  0.335- 147 1.96 150 1.97 183 1.97 133 1.99
  39  0.834  0.166  0.671- 134 1.97 148 1.97 151 1.99 184 1.99
  40  0.833  0.417  0.006- 155 1.97 152 1.97 188 1.98 135 2.01
  41  0.841  0.421  0.330- 153 1.92 150 1.92 186 1.98 136 2.11 192 3.13
  42  0.835  0.418  0.669- 137 1.96 154 1.96 151 1.96 187 2.09
  43  0.834  0.667  0.002- 146 1.97 191 1.98 155 1.98 138 1.99
  44  0.834  0.669  0.335- 144 1.96 189 1.97 153 1.97 139 1.99
  45  0.834  0.668  0.671- 140 1.97 145 1.97 190 1.99 154 1.99
  46  0.833  0.917  0.002- 149 1.97 146 1.97 182 1.97 141 1.99
  47  0.833  0.917  0.335- 144 1.97 147 1.97 180 1.97 142 1.99
  48  0.833  0.917  0.669- 143 1.98 145 1.98 148 1.98 181 1.98
  49  0.917  0.834  0.169- 105 1.97 141 1.97 138 1.98 144 1.99
  50  0.917  0.835  0.502- 106 1.97 142 1.97 145 1.98 139 2.00
  51  0.917  0.834  0.836- 107 1.98 143 1.98 146 1.98 140 1.98
  52  0.917  0.083  0.169- 141 1.97  96 1.97 132 1.98 147 1.99
  53  0.917  0.083  0.502- 142 1.97  97 1.97 148 1.98 133 2.00
  54  0.917  0.083  0.836- 143 1.98  98 1.98 149 1.98 134 1.98
  55  0.918  0.332  0.168-  99 1.96 132 1.96 135 1.98 150 2.00
  56  0.923  0.330  0.505- 100 1.93 151 1.95 133 1.95 136 2.08
  57  0.916  0.334  0.837- 101 1.98 134 1.98 152 1.98 137 1.99
  58  0.918  0.586  0.168- 102 1.96 138 1.96 135 1.98 153 2.00
  59  0.923  0.593  0.505- 103 1.93 154 1.95 139 1.95 136 2.08
  60  0.916  0.583  0.837- 104 1.98 140 1.98 155 1.98 137 1.99
  61  0.167  0.833  0.168- 105 1.97 102 1.97 117 1.97 156 1.99
  62  0.167  0.833  0.502- 106 1.97 157 1.98 103 1.98 118 1.98
  63  0.167  0.833  0.836- 107 1.98 158 1.98 104 1.98 119 1.98
  64  0.166  0.083  0.169- 105 1.97  96 1.97 108 1.98 159 1.99
  65  0.165  0.083  0.502- 106 1.97  97 1.97 160 1.98 109 2.00
  66  0.166  0.083  0.836- 107 1.98  98 1.98 161 1.98 110 1.98
  67  0.167  0.333  0.168-  96 1.97 111 1.97  99 1.97 162 1.99
  68  0.167  0.333  0.502-  97 1.97 163 1.98 112 1.98 100 1.98
  69  0.167  0.333  0.836-  98 1.98 164 1.98 113 1.98 101 1.98
  70  0.167  0.584  0.168- 114 1.97  99 1.97 102 1.97 165 1.99
  71  0.168  0.584  0.503- 115 1.97 166 1.98 100 1.98 103 1.98
  72  0.167  0.583  0.836- 116 1.98 167 1.98 101 1.98 104 1.98
  73  0.416  0.833  0.168- 114 1.97 129 1.97 117 1.97 168 1.99
  74  0.416  0.832  0.503- 115 1.97 169 1.98 130 1.98 118 1.98
  75  0.417  0.833  0.836- 116 1.98 170 1.98 131 1.98 119 1.98
  76  0.414  0.082  0.168- 117 1.96 108 1.96 120 1.98 171 2.00
  77  0.407  0.077  0.505- 118 1.93 172 1.95 109 1.95 121 2.08
  78  0.417  0.084  0.837- 119 1.98 110 1.98 173 1.98 122 1.99
  79  0.414  0.332  0.168- 111 1.96 108 1.96 123 1.98 174 2.00
  80  0.407  0.330  0.505- 112 1.93 175 1.95 109 1.95 124 2.08
  81  0.417  0.334  0.837- 113 1.98 110 1.98 176 1.98 125 1.99
  82  0.416  0.584  0.168- 114 1.97 111 1.97 126 1.97 177 1.99
  83  0.416  0.584  0.503- 115 1.97 178 1.98 112 1.98 127 1.98
  84  0.417  0.583  0.836- 116 1.98 179 1.98 113 1.98 128 1.98
  85  0.667  0.833  0.168- 141 1.97 126 1.97 129 1.97 180 1.99
  86  0.667  0.833  0.502- 142 1.97 181 1.98 127 1.98 130 1.98
  87  0.667  0.833  0.836- 143 1.98 182 1.98 128 1.98 131 1.98
  88  0.668  0.082  0.168- 129 1.96 132 1.96 120 1.98 183 2.00
  89  0.670  0.077  0.505- 130 1.93 184 1.95 133 1.95 121 2.08
  90  0.666  0.084  0.837- 131 1.98 134 1.98 185 1.98 122 1.99
  91  0.667  0.333  0.173- 120 1.95 135 1.95 123 1.95 186 2.24
  92  0.667  0.333  0.839- 188 1.98 122 1.98 137 1.98 125 1.98
  93  0.668  0.586  0.168- 126 1.96 138 1.96 123 1.98 189 2.00
  94  0.670  0.593  0.505- 127 1.93 190 1.95 139 1.95 124 2.08
  95  0.666  0.583  0.837- 128 1.98 140 1.98 191 1.98 125 1.99
  96  0.083  0.167  0.130-  52 1.97  64 1.97  67 1.97   1 1.99
  97  0.084  0.167  0.463-  53 1.97  65 1.97  68 1.97   2 1.99
  98  0.083  0.167  0.796-  69 1.98   3 1.98  54 1.98  66 1.98
  99  0.084  0.417  0.130-  55 1.96  70 1.97  67 1.97   4 1.99
 100  0.084  0.417  0.462-  56 1.93  71 1.98  68 1.98   5 1.99
 101  0.083  0.416  0.797-   6 1.97  57 1.98  72 1.98  69 1.98
 102  0.084  0.667  0.130-  58 1.96  70 1.97  61 1.97   7 1.99
 103  0.084  0.666  0.462-  59 1.93  71 1.98  62 1.98   8 1.99
 104  0.083  0.666  0.797-   9 1.97  60 1.98  72 1.98  63 1.98
 105  0.083  0.917  0.130-  64 1.97  49 1.97  61 1.97  10 1.99
 106  0.084  0.916  0.463-  65 1.97  50 1.97  62 1.97  11 1.99
 107  0.083  0.917  0.796-  63 1.98  12 1.98  66 1.98  51 1.98
 108  0.333  0.166  0.130-  76 1.96  79 1.96  64 1.98  13 1.99
 109  0.335  0.167  0.463-  77 1.95  80 1.95  14 1.99  65 2.00
 110  0.334  0.167  0.797-  15 1.97  81 1.98  78 1.98  66 1.98
 111  0.333  0.417  0.130-  79 1.96  82 1.97  67 1.97  16 1.99
 112  0.334  0.417  0.462-  80 1.93  83 1.98  68 1.98  17 1.99
 113  0.334  0.416  0.797-  18 1.97  81 1.98  84 1.98  69 1.98
 114  0.333  0.667  0.129-  73 1.97  70 1.97  82 1.97  19 1.99
 115  0.333  0.667  0.462-  74 1.97  71 1.97  83 1.97  20 1.99
 116  0.333  0.667  0.796-  75 1.98  72 1.98  84 1.98  21 1.98
 117  0.333  0.917  0.130-  76 1.96  73 1.97  61 1.97  22 1.99
 118  0.334  0.916  0.462-  77 1.93  74 1.98  62 1.98  23 1.99
 119  0.334  0.917  0.797-  24 1.97  78 1.98  75 1.98  63 1.98
 120  0.584  0.168  0.135-  91 1.95  76 1.98  88 1.98  25 2.01
 121  0.583  0.167  0.465- 192 1.90  77 2.08  89 2.08  26 2.11
 122  0.584  0.169  0.795-  27 1.96  92 1.98  78 1.99  90 1.99
 123  0.584  0.416  0.135-  91 1.95  79 1.98  93 1.98  28 2.01
 124  0.584  0.416  0.465- 192 1.90  80 2.08  94 2.08  29 2.11
 125  0.584  0.416  0.795-  30 1.96  92 1.98  81 1.99  95 1.99
 126  0.583  0.667  0.130-  93 1.96  82 1.97  85 1.97  31 1.99
 127  0.583  0.666  0.462-  94 1.93  83 1.98  86 1.98  32 1.99
 128  0.584  0.666  0.797-  33 1.97  95 1.98  84 1.98  87 1.98
 129  0.583  0.917  0.130-  88 1.96  73 1.97  85 1.97  34 1.99
 130  0.583  0.916  0.462-  89 1.93  74 1.98  86 1.98  35 1.99
 131  0.584  0.917  0.797-  36 1.97  90 1.98  75 1.98  87 1.98
 132  0.834  0.166  0.130-  88 1.96  55 1.96  52 1.98  37 1.99
 133  0.833  0.167  0.463-  89 1.95  56 1.95  38 1.99  53 2.00
 134  0.833  0.167  0.797-  39 1.97  57 1.98  90 1.98  54 1.98
 135  0.832  0.416  0.135-  91 1.95  55 1.98  58 1.98  40 2.01
 136  0.833  0.416  0.465- 192 1.90  56 2.08  59 2.08  41 2.11
 137  0.831  0.416  0.795-  42 1.96  92 1.98  57 1.99  60 1.99
 138  0.834  0.667  0.130-  93 1.96  58 1.96  49 1.98  43 1.99
 139  0.833  0.665  0.463-  94 1.95  59 1.95  44 1.99  50 2.00
 140  0.833  0.666  0.797-  45 1.97  95 1.98  60 1.98  51 1.98
 141  0.833  0.917  0.130-  52 1.97  49 1.97  85 1.97  46 1.99
 142  0.833  0.916  0.463-  53 1.97  50 1.97  86 1.97  47 1.99
 143  0.833  0.917  0.796-  87 1.98  48 1.98  54 1.98  51 1.98
 144  0.917  0.834  0.296-  44 1.96  11 1.97  47 1.97  49 1.99
 145  0.916  0.833  0.629-  45 1.97  50 1.98  12 1.98  48 1.98
 146  0.917  0.833  0.963-  43 1.97  10 1.97  46 1.97  51 1.98
 147  0.917  0.083  0.296-  38 1.96  47 1.97   2 1.97  52 1.99
 148  0.916  0.084  0.629-  39 1.97  53 1.98  48 1.98   3 1.98
 149  0.917  0.083  0.963-  37 1.97   1 1.97  46 1.97  54 1.98
 150  0.918  0.333  0.297-  41 1.92  38 1.97   5 1.98  55 2.00
 151  0.916  0.333  0.630-  56 1.95  42 1.96  39 1.99   6 2.00
 152  0.916  0.334  0.964-  40 1.97  37 1.98   4 1.98  57 1.98
 153  0.918  0.585  0.297-  41 1.92  44 1.97   8 1.98  58 2.00
 154  0.916  0.583  0.630-  59 1.95  42 1.96  45 1.99   9 2.00
 155  0.916  0.582  0.964-  40 1.97  43 1.98   7 1.98  60 1.98
 156  0.166  0.834  0.296-  23 1.96   8 1.96  11 1.97  61 1.99
 157  0.167  0.833  0.629-  24 1.98   9 1.98  62 1.98  12 1.98
 158  0.167  0.833  0.963-   7 1.97  22 1.97  10 1.97  63 1.98
 159  0.166  0.083  0.296-  14 1.96  11 1.97   2 1.97  64 1.99
 160  0.167  0.084  0.629-  15 1.97  65 1.98  12 1.98   3 1.98
 161  0.167  0.083  0.963-  13 1.97   1 1.97  10 1.97  66 1.98
 162  0.166  0.333  0.296-  17 1.96   5 1.96   2 1.97  67 1.99
 163  0.167  0.334  0.629-  18 1.98   6 1.98  68 1.98   3 1.98
 164  0.167  0.333  0.963-  16 1.97   4 1.97   1 1.97  69 1.98
 165  0.167  0.583  0.296-   5 1.96   8 1.96  20 1.97  70 1.99
 166  0.166  0.583  0.629-   6 1.97   9 1.97  71 1.98  21 1.98
 167  0.167  0.583  0.963-   4 1.97   7 1.97  19 1.97  72 1.98
 168  0.417  0.833  0.296-  35 1.96  23 1.96  20 1.97  73 1.99
 169  0.417  0.834  0.629-  36 1.97  24 1.97  74 1.98  21 1.98
 170  0.417  0.833  0.963-  34 1.97  22 1.97  19 1.97  75 1.98
 171  0.415  0.082  0.297-  26 1.92  14 1.97  23 1.98  76 2.00
 172  0.417  0.084  0.630-  77 1.95  27 1.96  15 1.99  24 2.00
 173  0.418  0.084  0.964-  25 1.97  13 1.98  22 1.98  78 1.98
 174  0.415  0.333  0.297-  29 1.92  14 1.97  17 1.98  79 2.00
 175  0.417  0.333  0.630-  80 1.95  30 1.96  15 1.99  18 2.00
 176  0.418  0.334  0.964-  28 1.97  13 1.98  16 1.98  81 1.98
 177  0.417  0.583  0.296-  17 1.96  32 1.96  20 1.97  82 1.99
 178  0.417  0.583  0.629-  18 1.97  33 1.97  83 1.98  21 1.98
 179  0.417  0.583  0.963-  16 1.97  31 1.97  19 1.97  84 1.98
 180  0.667  0.834  0.296-  35 1.96  32 1.96  47 1.97  85 1.99
 181  0.666  0.833  0.629-  36 1.98  33 1.98  86 1.98  48 1.98
 182  0.667  0.833  0.963-  31 1.97  34 1.97  46 1.97  87 1.98
 183  0.667  0.082  0.297-  26 1.92  38 1.97  35 1.98  88 2.00
 184  0.667  0.084  0.630-  89 1.95  27 1.96  39 1.99  36 2.00
 185  0.666  0.084  0.964-  25 1.97  37 1.98  34 1.98  90 1.98
 186  0.667  0.333  0.316-  26 1.98  41 1.98  29 1.98  91 2.24 192 2.65
 187  0.667  0.333  0.614- 192 2.00  27 2.09  42 2.09  30 2.09
 188  0.667  0.333  0.966-  25 1.98  40 1.98  28 1.98  92 1.98
 189  0.667  0.585  0.297-  29 1.92  44 1.97  32 1.98  93 2.00
 190  0.667  0.583  0.630-  94 1.95  30 1.96  45 1.99  33 2.00
 191  0.666  0.582  0.964-  28 1.97  43 1.98  31 1.98  95 1.98
 192  0.667  0.334  0.486- 136 1.90 124 1.90 121 1.90 187 2.00 186 2.65  41 3.13  29 3.13  26 3.13

 
  LATTYP: Found a hexagonal cell.
 ALAT       =    12.9943542480
 C/A-ratio  =     1.2014478222
  
  Lattice vectors:
  
 A1 = (  12.9943542480,   0.0000000000,   0.0000000000)
 A2 = (  -6.4971766472,  11.2534400587,   0.0000000000)
 A3 = (   0.0000000000,   0.0000000000,  15.6120386124)


Analysis of symmetry for initial positions (statically):
=====================================================================
 Subroutine PRICEL returns:
 Original cell was already a primitive cell.
 

 Routine SETGRP: Setting up the symmetry group for a 
 hexagonal supercell.


 Subroutine GETGRP returns: Found  2 space group operations
 (whereof  2 operations were pure point group operations)
 out of a pool of 24 trial point group operations.


The static configuration has the point symmetry C_1h.


Analysis of symmetry for dynamics (positions and initial velocities):
=====================================================================
 Subroutine PRICEL returns:
 Original cell was already a primitive cell.
 

 Routine SETGRP: Setting up the symmetry group for a 
 hexagonal supercell.


 Subroutine GETGRP returns: Found  2 space group operations
 (whereof  2 operations were pure point group operations)
 out of a pool of 24 trial point group operations.


The dynamic configuration has the point symmetry C_1h.


Analysis of structural, dynamic, and magnetic symmetry:
=====================================================================
 Subroutine PRICEL returns:
 Original cell was already a primitive cell.
 

 Routine SETGRP: Setting up the symmetry group for a 
 hexagonal supercell.


 Subroutine GETGRP returns: Found  2 space group operations
 (whereof  2 operations were pure point group operations)
 out of a pool of 24 trial point group operations.


The overall configuration has the point symmetry C_1h.


 Subroutine INISYM returns: Found  2 space group operations
 (whereof  2 operations are pure point group operations),
 and found     1 'primitive' translations


----------------------------------------------------------------------------------------

                                     Primitive cell                                     

  volume of cell :    2282.9669

  direct lattice vectors                    reciprocal lattice vectors
    12.994354248  0.000000000  0.000000000     0.076956498  0.044430855  0.000000000
    -6.497176647 11.253440059  0.000000000     0.000000000  0.088861716  0.000000000
     0.000000000  0.000000000 15.612038612     0.000000000  0.000000000  0.064053134

  length of vectors
    12.994354248 12.994353294 15.612038612     0.088861710  0.088861716  0.064053134

  position of ions in fractional coordinates (direct lattice)
     0.083272726  0.166545453  0.002248641
     0.083245404  0.166490808  0.335048801
     0.083286210  0.166572407  0.669429189
     0.083760946  0.416942863  0.002170405
     0.085465835  0.417407769  0.334697248
     0.084323068  0.417133856  0.670474142
     0.083751227  0.666824882  0.002169202
     0.085469893  0.668062393  0.334700828
     0.084310370  0.667184722  0.670475570
     0.083263844  0.916727996  0.002254590
     0.083241513  0.916741374  0.335053879
     0.083268990  0.916705319  0.669423956
     0.332844207  0.166437068  0.002240541
     0.331405755  0.165700644  0.335173762
     0.332057315  0.166040082  0.671154654
     0.333181954  0.416942863  0.002170405
     0.331941971  0.417407769  0.334697248
     0.332810826  0.417133856  0.670474142
     0.333343936  0.666687813  0.002236851
     0.333334294  0.666668529  0.334978821
     0.333344035  0.666688011  0.669568210
     0.333177864  0.916250542  0.002168358
     0.331938092  0.914526373  0.334693979
     0.332807007  0.915689564  0.670478473
     0.583352530  0.166705092  0.005687905
     0.579262965  0.158525962  0.329731070
     0.582482437  0.164964905  0.669448392
     0.583337815  0.416635143  0.005695021
     0.579263278  0.420748829  0.329766411
     0.582462175  0.417515290  0.669437039
     0.583073603  0.666824882  0.002169202
     0.582592448  0.668062393  0.334700828
     0.582874300  0.667184722  0.670475570
     0.583072647  0.916250542  0.002168358
     0.582588249  0.914526373  0.334693979
     0.582882586  0.915689564  0.670478473
     0.833592920  0.166437068  0.002240541
     0.834294948  0.165700644  0.335173762
     0.833982826  0.166040082  0.671154654
     0.833297296  0.416635143  0.005695021
     0.841485520  0.420748829  0.329766411
     0.835053084  0.417515290  0.669437039
     0.833566964  0.667133988  0.002236002
     0.834290355  0.668580772  0.335174680
     0.833951205  0.667902471  0.671154618
     0.833464077  0.916727996  0.002254590
     0.833499786  0.916741374  0.335053879
     0.833436254  0.916705319  0.669423956
     0.917105290  0.834210520  0.168597134
     0.917382465  0.834764870  0.502308313
     0.916811769  0.833623476  0.836146646
     0.917112057  0.082884468  0.168596406
     0.917404692  0.082596277  0.502310424
     0.916818577  0.083174803  0.836148519
     0.918125644  0.332324922  0.168423781
     0.922896521  0.330355140  0.504992053
     0.916340400  0.333622413  0.837128106
     0.918116162  0.585786267  0.168419162
     0.922872777  0.592514229  0.504998503
     0.916324713  0.582691222  0.837125242
     0.166527943  0.833473590  0.168244036
     0.166713420  0.833250682  0.502444999
     0.166521059  0.833478590  0.836260621
     0.165772612  0.082884468  0.168596406
     0.165191787  0.082596277  0.502310424
     0.166356428  0.083174803  0.836148519
     0.166532449  0.333064659  0.168248828
     0.166745611  0.333490984  0.502433724
     0.166521541  0.333042845  0.836269797
     0.167179071  0.583597995  0.168398623
     0.167868927  0.583943247  0.502819306
     0.166882204  0.583439052  0.836318263
     0.416416901  0.832833682  0.168394541
     0.416068680  0.832137240  0.502821162
     0.416564316  0.833128514  0.836313588
     0.414209891  0.081887567  0.168407124
     0.407439350  0.077095362  0.505003366
     0.417299805  0.083685354  0.837128684
     0.414199457  0.332324922  0.168423781
     0.407458858  0.330355140  0.504992053
     0.417282251  0.333622413  0.837128106
     0.416419147  0.583597995  0.168398623
     0.416074543  0.583943247  0.502819306
     0.416557071  0.583439052  0.836318263
     0.666945767  0.833473590  0.168244036
     0.666537382  0.833250682  0.502444999
     0.666957651  0.833478590  0.836260621
     0.667677892  0.081887567  0.168407124
     0.669656228  0.077095362  0.505003366
     0.666385765  0.083685354  0.837128684
     0.666672418  0.333344716  0.172502675
     0.666674094  0.333348068  0.839131073
     0.667670342  0.585786267  0.168419162
     0.669641690  0.592514229  0.504998503
     0.666366747  0.582691222  0.837125242
     0.083334541  0.166669083  0.129507143
     0.083605641  0.167211267  0.462506177
     0.083333148  0.166666297  0.795980901
     0.083509034  0.416871861  0.129609695
     0.083863599  0.417437798  0.462181222
     0.082695240  0.416419758  0.796740000
     0.083503244  0.666649272  0.129599995
     0.083856180  0.666439586  0.462184070
     0.082687276  0.666270023  0.796742179
     0.083327939  0.916671256  0.129500208
     0.083591214  0.916399375  0.462509532
     0.083326849  0.916668429  0.795976509
     0.332916116  0.166461549  0.129837488
     0.334539312  0.167259271  0.462818508
     0.333902355  0.166958963  0.797170239
     0.333362864  0.416871861  0.129609695
     0.333574236  0.417437798  0.462181222
     0.333724556  0.416419758  0.796740000
     0.333340032  0.666680006  0.129413248
     0.333342820  0.666685581  0.462262102
     0.333339732  0.666679405  0.796118570
     0.333361152  0.916505932  0.129600171
     0.333566731  0.916153499  0.462183528
     0.333736985  0.917331848  0.796739506
     0.584048385  0.168096801  0.134699450
     0.583492567  0.166985166  0.464650595
     0.584335317  0.168670665  0.794835293
     0.584029274  0.415952223  0.134703255
     0.583531065  0.416419018  0.464676129
     0.584307031  0.415662750  0.794833129
     0.583145976  0.666649272  0.129599995
     0.582583353  0.666439586  0.462184070
     0.583582695  0.666270023  0.796742179
     0.583144809  0.916505932  0.129600171
     0.582586797  0.916153499  0.462183528
     0.583594892  0.917331848  0.796739506
     0.833545491  0.166461549  0.129837488
     0.832720018  0.167259271  0.462818508
     0.833056667  0.166958963  0.797170239
     0.831922918  0.415952223  0.134703255
     0.832887922  0.416419018  0.464676129
     0.831355688  0.415662750  0.794833129
     0.833539584  0.667079228  0.129831027
     0.832716170  0.665432402  0.462814629
     0.833040408  0.666080877  0.797174993
     0.833343316  0.916671256  0.129500208
     0.832808086  0.916399375  0.462509532
     0.833341579  0.916668429  0.795976509
     0.916824937  0.833649813  0.296100051
     0.916449327  0.832898593  0.629017774
     0.916636975  0.833273888  0.962942110
     0.916818301  0.083161004  0.296102835
     0.916463239  0.083527651  0.629018399
     0.916646462  0.083352627  0.962945024
     0.917562716  0.332553757  0.296714706
     0.915975360  0.333018028  0.629801982
     0.916019449  0.333931205  0.964162721
     0.917577708  0.585002754  0.296709108
     0.915963093  0.582920681  0.629808933
     0.915993313  0.582054546  0.964160753
     0.166433544  0.833577120  0.295747130
     0.166756531  0.833243598  0.629180599
     0.166622400  0.833376970  0.963064468
     0.166342905  0.083161004  0.296102835
     0.167064614  0.083527651  0.629018399
     0.166706351  0.083352627  0.962945024
     0.166421188  0.332842138  0.295751217
     0.166753532  0.333506827  0.629173925
     0.166625151  0.333250063  0.963073957
     0.166697134  0.583346891  0.295886221
     0.166285431  0.583143762  0.629466201
     0.166750297  0.583379026  0.963036759
     0.416653371  0.833306623  0.295884531
     0.416872810  0.833745501  0.629463182
     0.416636210  0.833272301  0.963032303
     0.415008124  0.082418436  0.296711495
     0.417068073  0.084045050  0.629799119
     0.417920364  0.084009849  0.964163825
     0.414991278  0.332553757  0.296714706
     0.417042907  0.333018028  0.629801982
     0.417911935  0.333931205  0.964162721
     0.416649980  0.583346891  0.295886221
     0.416858554  0.583143762  0.629466201
     0.416628951  0.583379026  0.963036759
     0.667143696  0.833577120  0.295747130
     0.666487187  0.833243598  0.629180599
     0.666754690  0.833376970  0.963064468
     0.667410527  0.082418436  0.296711495
     0.666977193  0.084045050  0.629799119
     0.666089701  0.084009849  0.964163825
     0.666659169  0.333318217  0.315768298
     0.666659001  0.333317882  0.613595891
     0.666665705  0.333331291  0.965731646
     0.667425225  0.585002754  0.296709108
     0.666957768  0.582920681  0.629808933
     0.666061412  0.582054546  0.964160753
     0.666772083  0.333544047  0.485599462

  ion indices of the primitive-cell ions
   primitive index   ion index
                 1           1
                 2           2
                 3           3
                 4           4
                 5           5
                 6           6
                 7           7
                 8           8
                 9           9
                10          10
                11          11
                12          12
                13          13
                14          14
                15          15
                16          16
                17          17
                18          18
                19          19
                20          20
                21          21
                22          22
                23          23
                24          24
                25          25
                26          26
                27          27
                28          28
                29          29
                30          30
                31          31
                32          32
                33          33
                34          34
                35          35
                36          36
                37          37
                38          38
                39          39
                40          40
                41          41
                42          42
                43          43
                44          44
                45          45
                46          46
                47          47
                48          48
                49          49
                50          50
                51          51
                52          52
                53          53
                54          54
                55          55
                56          56
                57          57
                58          58
                59          59
                60          60
                61          61
                62          62
                63          63
                64          64
                65          65
                66          66
                67          67
                68          68
                69          69
                70          70
                71          71
                72          72
                73          73
                74          74
                75          75
                76          76
                77          77
                78          78
                79          79
                80          80
                81          81
                82          82
                83          83
                84          84
                85          85
                86          86
                87          87
                88          88
                89          89
                90          90
                91          91
                92          92
                93          93
                94          94
                95          95
                96          96
                97          97
                98          98
                99          99
               100         100
               101         101
               102         102
               103         103
               104         104
               105         105
               106         106
               107         107
               108         108
               109         109
               110         110
               111         111
               112         112
               113         113
               114         114
               115         115
               116         116
               117         117
               118         118
               119         119
               120         120
               121         121
               122         122
               123         123
               124         124
               125         125
               126         126
               127         127
               128         128
               129         129
               130         130
               131         131
               132         132
               133         133
               134         134
               135         135
               136         136
               137         137
               138         138
               139         139
               140         140
               141         141
               142         142
               143         143
               144         144
               145         145
               146         146
               147         147
               148         148
               149         149
               150         150
               151         151
               152         152
               153         153
               154         154
               155         155
               156         156
               157         157
               158         158
               159         159
               160         160
               161         161
               162         162
               163         163
               164         164
               165         165
               166         166
               167         167
               168         168
               169         169
               170         170
               171         171
               172         172
               173         173
               174         174
               175         175
               176         176
               177         177
               178         178
               179         179
               180         180
               181         181
               182         182
               183         183
               184         184
               185         185
               186         186
               187         187
               188         188
               189         189
               190         190
               191         191
               192         192

----------------------------------------------------------------------------------------

 
 
 KPOINTS: pymatgen with grid density = 659 / numbe

Automatic generation of k-mesh.
 Grid dimensions read from file:
 generate k-points for:    1    1    1

 Generating k-lattice:

  Cartesian coordinates                     Fractional coordinates (reciprocal lattice)
     0.076956498  0.044430855  0.000000000     1.000000000  0.000000000  0.000000000
     0.000000000  0.088861716  0.000000000     0.000000000  1.000000000  0.000000000
     0.000000000  0.000000000  0.064053134     0.000000000  0.000000000  1.000000000

  Length of vectors
     0.088861710  0.088861716  0.064053134

  Shift w.r.t. Gamma in fractional coordinates (k-lattice)
     0.000000000  0.000000000  0.000000000

 
 Subroutine IBZKPT returns following result:
 ===========================================
 
 Found      1 irreducible k-points:
 
 Following reciprocal coordinates:
            Coordinates               Weight
  0.000000  0.000000  0.000000      1.000000
 
 Following cartesian coordinates:
            Coordinates               Weight
  0.000000  0.000000  0.000000      1.000000
 
 
 Subroutine IBZKPT_HF returns following result:
 ==============================================
 
 Found      1 k-points in 1st BZ
 the following      1 k-points will be used (e.g. in the exchange kernel)
 Following reciprocal coordinates:   # in IRBZ
  0.000000  0.000000  0.000000    1.00000000   1 t-inv F


--------------------------------------------------------------------------------------------------------




 Dimension of arrays:
   k-points           NKPTS =      1   k-points in BZ     NKDIM =      1   number of bands    NBANDS=   1056
   number of dos      NEDOS =    301   number of ions     NIONS =    192
   non local maximal  LDIM  =      6   non local SUM 2l+1 LMDIM =     18
   total plane-waves  NPLWV = 327680
   max r-space proj   IRMAX =   2305   max aug-charges    IRDMAX=   6476
   dimension x,y,z NGX =    64 NGY =   64 NGZ =   80
   dimension x,y,z NGXF=   128 NGYF=  128 NGZF=  160
   support grid    NGXF=   128 NGYF=  128 NGZF=  160
   ions per type =              95  96   1
   NGX,Y,Z   is equivalent  to a cutoff of   8.19,  8.19,  8.52 a.u.
   NGXF,Y,Z  is equivalent  to a cutoff of  16.38, 16.38, 17.04 a.u.

 SYSTEM =  zno                                     
 POSCAR =  Zn2 O2                                  

 Startparameter for this run:
   NWRITE =      2    write-flag & timer
   PREC   = normal    normal or accurate (medium, high low for compatibility)
   ISTART =      1    job   : 0-new  1-cont  2-samecut
   ICHARG =      0    charge: 1-file 2-atom 10-const
   ISPIN  =      2    spin polarized calculation?
   LNONCOLLINEAR =      F non collinear calculations
   LSORBIT =      F    spin-orbit coupling
   INIWAV =      1    electr: 0-lowe 1-rand  2-diag
   LASPH  =      F    aspherical Exc in radial PAW
 Electronic Relaxation 1
   ENCUT  =  400.0 eV  29.40 Ry    5.42 a.u.  21.19 21.19 25.46*2*pi/ulx,y,z
   ENINI  =  400.0     initial cutoff
   ENAUG  =  605.4 eV  augmentation charge cutoff
   NELM   =   1500;   NELMIN=  4; NELMDL=  0     # of ELM steps 
   EDIFF  = 0.1E-05   stopping-criterion for ELM
   LREAL  =      T    real-space projection
   NLSPLINE    = F    spline interpolate recip. space projectors
   LCOMPAT=      F    compatible to vasp.4.4
   GGA_COMPAT  = T    GGA compatible to vasp.4.4-vasp.4.6
   LMAXPAW     = -100 max onsite density
   LMAXMIX     =    2 max onsite mixed and CHGCAR
   VOSKOWN=      0    Vosko Wilk Nusair interpolation
   ROPT   =   -0.00050  -0.00050  -0.00050
 Ionic relaxation
   EDIFFG = -.1E-01   stopping-criterion for IOM
   NSW    =      5    number of steps for IOM
   NBLOCK =      1;   KBLOCK =      5    inner block; outer block 
   IBRION =      2    ionic relax: 0-MD 1-quasi-New 2-CG
   NFREE  =      1    steps in history (QN), initial steepest desc. (CG)
   ISIF   =      2    stress and relaxation
   IWAVPR =     11    prediction:  0-non 1-charg 2-wave 3-comb
   ISYM   =      3    0-nonsym 1-usesym 2-fastsym
   LCORR  =      T    Harris-Foulkes like correction to forces

   POTIM  = 0.5000    time-step for ionic-motion
   TEIN   =    0.0    initial temperature
   TEBEG  =    0.0;   TEEND  =   0.0 temperature during run
   SMASS  =  -3.00    Nose mass-parameter (am)
   estimated Nose-frequenzy (Omega)   =  0.10E-29 period in steps = 0.13E+47 mass=  -0.386E-26a.u.
   SCALEE = 1.0000    scale energy and forces
   NPACO  =    256;   APACO  = 10.0  distance and # of slots for P.C.
   PSTRESS=    0.0 pullay stress

  Mass of Ions in am
   POMASS =  65.39 16.00 95.94
  Ionic Valenz
   ZVAL   =  12.00  6.00 14.00
  Atomic Wigner-Seitz radii
   RWIGS  =  -1.00 -1.00 -1.00
  virtual crystal weights 
   VCA    =   1.00  1.00  1.00
   NELECT =    1728.0000    total number of electrons
   NUPDOWN=      -1.0000    fix difference up-down

 DOS related values:
   EMIN   =  10.00;   EMAX   =-10.00  energy-range for DOS
   EFERMI =   0.00;   METHOD = LEGACY      
   ISMEAR =     0;   SIGMA  =   0.01  broadening in eV -4-tet -1-fermi 0-gaus

 Electronic relaxation 2 (details)
   IALGO  =     53    algorithm
   LDIAG  =      T    sub-space diagonalisation (order eigenvalues)
   LSUBROT=      F    optimize rotation matrix (better conditioning)
   TURBO    =      0    0=normal 1=particle mesh
   IRESTART =      0    0=no restart 2=restart with 2 vectors
   NREBOOT  =      0    no. of reboots
   NMIN     =      0    reboot dimension
   EREF     =   0.00    reference energy to select bands
   IMIX   =      4    mixing-type and parameters
     AMIX     =   0.40;   BMIX     =  1.00
     AMIX_MAG =   1.60;   BMIX_MAG =  1.00
     AMIN     =   0.10
     WC   =   100.;   INIMIX=   1;  MIXPRE=   1;  MAXMIX= -45

 Intra band minimization:
   WEIMIN = 0.0010     energy-eigenvalue tresh-hold
   EBREAK =  0.24E-09  absolut break condition
   DEPER  =   0.30     relativ break condition  

   TIME   =   0.30     timestep for ELM

  volume/ion in A,a.u.               =      11.89        80.24
  Fermi-wavevector in a.u.,A,eV,Ry     =   1.491957  2.819389 30.285679  2.225935
  Thomas-Fermi vector in A             =   2.604546
 
 Write flags
   LWAVE        =      T    write WAVECAR
   LDOWNSAMPLE  =      F    k-point downsampling of WAVECAR
   LCHARG       =      T    write CHGCAR
   LVTOT        =      F    write LOCPOT, total local potential
   LVHAR        =      T    write LOCPOT, Hartree potential only
   LELF         =      F    write electronic localiz. function (ELF)
   LORBIT       =     11    0 simple, 1 ext, 2 COOP (PROOUT), +10 PAW based schemes


 Dipole corrections
   LMONO  =      F    monopole corrections only (constant potential shift)
   LDIPOL =      F    correct potential (dipole corrections)
   IDIPOL =      0    1-x, 2-y, 3-z, 4-all directions 
   EPSILON=  1.0000000 bulk dielectric constant

 Exchange correlation treatment:
   GGA     =    PE    GGA type
   LEXCH   =     8    internal setting for exchange type
   LIBXC   =     F    Libxc                    
   VOSKOWN =     0    Vosko Wilk Nusair interpolation
   EXXOEP  =     0    0=HF, 1=EXX-LHF (local Hartree Fock) 2=EXX OEP
   LHFCALC =     T    Hartree Fock is set to
   LSYMGRAD=     F    symmetrize gradient (conserves proper symmetry)
   PRECFOCK=fast      Normal, Fast or Accurate (Low or Medium for compatibility)
   LRHFCALC=     F    long range Hartree Fock
   LRSCOR  =     F    long range correlation only (use DFT for short range part)
   LTHOMAS =     F    Thomas Fermi screening in HF
   LMODELHF=     F    short range full HF, long range fraction AEXX
   FOCKCORR=     1    mode to apply convergence corrections
   LFOCKACE=     T    use Adeptively-Compressed-Exchange operator
   ENCUT4O =  -1.0   cutoff for four orbital integrals eV
   LMAXFOCK=     4    L truncation for augmentation on plane wave grid
   LMAXFOCKAE=  -1    L truncation for all-electron charge restoration on plane wave grid
   NMAXFOCKAE=   1    number of basis functions for all-electron charge restoration
   LFOCKAEDFT=     F  apply the AE augmentation even for DFT
   NKREDX  =     1    reduce k-point grid by
   NKREDY  =     1    reduce k-point grid by
   NKREDZ  =     1    reduce k-point grid by
   SHIFTRED=     F    shift reduced grid of Gamma
   HFKIDENT=     F    idential grid for each k-point
   ODDONLY =     F    use only odd q-grid points
   EVENONLY=     F    use only even q-grid points
   HFALPHA =   -1.0000 decay constant for conv. correction
   MCALPHA =    0.0000 extent of test-charge in conv. correction in multipole expansion
   AEXX    =    0.3750 exact exchange contribution
   HFSCREEN=    0.2000 screening length (either q_TF or 0.3 A-1)
   HFSCREENC=   0.2000 screening length for correlation (either q_TF or 0.3 A-1)
   HFRCUT  =    0.0000 spherical cutoff for potential kernel
   ALDAX   =    0.6250 LDA exchange part
   AGGAX   =    0.6250 GGA exchange part
   ALDAC   =    1.0000 LDA correlation
   AGGAC   =    1.0000 GGA correlation
   ENCUTFOCK=  -1.0 apply spherical cutoff to Coloumb kernel
   NBANDSGWLOW=     1    first orbital included in HF term
   NBLOCK_FOCK=    64    blocking factor in FOCK_ACC

 Linear response parameters
   LEPSILON=     F    determine dielectric tensor
   LRPA    =     F    only Hartree local field effects (RPA)
   LNABLA  =     F    use nabla operator in PAW spheres
   LVEL    =     F    velocity operator in full k-point grid
   CSHIFT  =0.1000    complex shift for real part using Kramers Kronig
   OMEGAMAX=  -1.0    maximum frequency
   DEG_THRESHOLD= 0.2000000E-02 threshold for treating states as degnerate
   RTIME   =   -0.100 relaxation time in fs
  (WPLASMAI=    0.000 imaginary part of plasma frequency in eV, 0.658/RTIME)
   DFIELD  = 0.0000000 0.0000000 0.0000000 field for delta impulse in time
 
  Optional k-point grid parameters
   LKPOINTS_OPT  =     F    use optional k-point grid
   KPOINTS_OPT_MODE=     1    mode for optional k-point grid
 
 Orbital magnetization related:
   ORBITALMAG=     F  switch on orbital magnetization
   LCHIMAG   =     F  perturbation theory with respect to B field
   DQ        =  0.001000  dq finite difference perturbation B field
   LLRAUG    =     F  two centre corrections for induced B field
   LBONE     =     F  B-component reconstruction in AE one-centre
   LVGVCALC  =     T  calculate vGv susceptibility
   LVGVAPPL  =     F  apply vGv susceptibility instead of pGv for G=0

 Random number generation:
   RANDOM_GENERATOR = DEFAULT
   PCG_SEED         = not used


--------------------------------------------------------------------------------------------------------


 conjugate gradient relaxation of ions
 charge density and potential will be updated during run
 spin polarized calculation
 Conjugate gradient for all bands (Freysoldt, et al. PRB 79, 241103 (2009))
 perform sub-space diagonalisation
    before iterative eigenvector-optimisation
 modified Broyden-mixing scheme, WC =      100.0
 initial mixing is a Kerker type mixing with AMIX =  0.4000 and BMIX =      1.0000
 Hartree-type preconditioning will be used
 using additional bands          192
 real space projection scheme for non local part
 use partial core corrections
 no Harris-corrections to forces 
 use gradient corrections 
 use of overlap-Matrix (Vanderbilt PP)
 Gauss-broadening in eV      SIGMA  =   0.01


--------------------------------------------------------------------------------------------------------


  energy-cutoff  :      400.00
  volume of cell :     2282.97
      direct lattice vectors                 reciprocal lattice vectors
    12.994354248  0.000000000  0.000000000     0.076956498  0.044430855  0.000000000
    -6.497176647 11.253440059  0.000000000     0.000000000  0.088861716  0.000000000
     0.000000000  0.000000000 15.612038612     0.000000000  0.000000000  0.064053134

  length of vectors
    12.994354248 12.994353294 15.612038612     0.088861710  0.088861716  0.064053134


 
 old parameters found on file WAVECAR:
  energy-cutoff  :      400.00
  volume of cell :     2282.97
      direct lattice vectors                 reciprocal lattice vectors
    12.994354248  0.000000000  0.000000000     0.076956498  0.044430855  0.000000000
    -6.497176647 11.253440059  0.000000000     0.000000000  0.088861716  0.000000000
     0.000000000  0.000000000 15.612038612     0.000000000  0.000000000  0.064053134

  length of vectors

 
 k-points in units of 2pi/SCALE and weight: pymatgen with grid density = 659 / numbe
   0.00000000  0.00000000  0.00000000       1.000
 
 k-points in reciprocal lattice and weights: pymatgen with grid density = 659 / numbe
   0.00000000  0.00000000  0.00000000       1.000
 
 position of ions in fractional coordinates (direct lattice) 
   0.08327273  0.16654545  0.00224864
   0.08324540  0.16649081  0.33504880
   0.08328621  0.16657241  0.66942919
   0.08376095  0.41694286  0.00217040
   0.08546584  0.41740777  0.33469725
   0.08432307  0.41713386  0.67047414
   0.08375123  0.66682488  0.00216920
   0.08546989  0.66806239  0.33470083
   0.08431037  0.66718472  0.67047557
   0.08326384  0.91672800  0.00225459
   0.08324151  0.91674137  0.33505388
   0.08326899  0.91670532  0.66942396
   0.33284421  0.16643707  0.00224054
   0.33140576  0.16570064  0.33517376
   0.33205732  0.16604008  0.67115465
   0.33318195  0.41694286  0.00217040
   0.33194197  0.41740777  0.33469725
   0.33281083  0.41713386  0.67047414
   0.33334394  0.66668781  0.00223685
   0.33333429  0.66666853  0.33497882
   0.33334403  0.66668801  0.66956821
   0.33317786  0.91625054  0.00216836
   0.33193809  0.91452637  0.33469398
   0.33280701  0.91568956  0.67047847
   0.58335253  0.16670509  0.00568790
   0.57926297  0.15852596  0.32973107
   0.58248244  0.16496491  0.66944839
   0.58333782  0.41663514  0.00569502
   0.57926328  0.42074883  0.32976641
   0.58246217  0.41751529  0.66943704
   0.58307360  0.66682488  0.00216920
   0.58259245  0.66806239  0.33470083
   0.58287430  0.66718472  0.67047557
   0.58307265  0.91625054  0.00216836
   0.58258825  0.91452637  0.33469398
   0.58288259  0.91568956  0.67047847
   0.83359292  0.16643707  0.00224054
   0.83429495  0.16570064  0.33517376
   0.83398283  0.16604008  0.67115465
   0.83329730  0.41663514  0.00569502
   0.84148552  0.42074883  0.32976641
   0.83505308  0.41751529  0.66943704
   0.83356696  0.66713399  0.00223600
   0.83429036  0.66858077  0.33517468
   0.83395120  0.66790247  0.67115462
   0.83346408  0.91672800  0.00225459
   0.83349979  0.91674137  0.33505388
   0.83343625  0.91670532  0.66942396
   0.91710529  0.83421052  0.16859713
   0.91738247  0.83476487  0.50230831
   0.91681177  0.83362348  0.83614665
   0.91711206  0.08288447  0.16859641
   0.91740469  0.08259628  0.50231042
   0.91681858  0.08317480  0.83614852
   0.91812564  0.33232492  0.16842378
   0.92289652  0.33035514  0.50499205
   0.91634040  0.33362241  0.83712811
   0.91811616  0.58578627  0.16841916
   0.92287278  0.59251423  0.50499850
   0.91632471  0.58269122  0.83712524
   0.16652794  0.83347359  0.16824404
   0.16671342  0.83325068  0.50244500
   0.16652106  0.83347859  0.83626062
   0.16577261  0.08288447  0.16859641
   0.16519179  0.08259628  0.50231042
   0.16635643  0.08317480  0.83614852
   0.16653245  0.33306466  0.16824883
   0.16674561  0.33349098  0.50243372
   0.16652154  0.33304284  0.83626980
   0.16717907  0.58359800  0.16839862
   0.16786893  0.58394325  0.50281931
   0.16688220  0.58343905  0.83631826
   0.41641690  0.83283368  0.16839454
   0.41606868  0.83213724  0.50282116
   0.41656432  0.83312851  0.83631359
   0.41420989  0.08188757  0.16840712
   0.40743935  0.07709536  0.50500337
   0.41729980  0.08368535  0.83712868
   0.41419946  0.33232492  0.16842378
   0.40745886  0.33035514  0.50499205
   0.41728225  0.33362241  0.83712811
   0.41641915  0.58359800  0.16839862
   0.41607454  0.58394325  0.50281931
   0.41655707  0.58343905  0.83631826
   0.66694577  0.83347359  0.16824404
   0.66653738  0.83325068  0.50244500
   0.66695765  0.83347859  0.83626062
   0.66767789  0.08188757  0.16840712
   0.66965623  0.07709536  0.50500337
   0.66638577  0.08368535  0.83712868
   0.66667242  0.33334472  0.17250267
   0.66667409  0.33334807  0.83913107
   0.66767034  0.58578627  0.16841916
   0.66964169  0.59251423  0.50499850
   0.66636675  0.58269122  0.83712524
   0.08333454  0.16666908  0.12950714
   0.08360564  0.16721127  0.46250618
   0.08333315  0.16666630  0.79598090
   0.08350903  0.41687186  0.12960970
   0.08386360  0.41743780  0.46218122
   0.08269524  0.41641976  0.79674000
   0.08350324  0.66664927  0.12960000
   0.08385618  0.66643959  0.46218407
   0.08268728  0.66627002  0.79674218
   0.08332794  0.91667126  0.12950021
   0.08359121  0.91639938  0.46250953
   0.08332685  0.91666843  0.79597651
   0.33291612  0.16646155  0.12983749
   0.33453931  0.16725927  0.46281851
   0.33390235  0.16695896  0.79717024
   0.33336286  0.41687186  0.12960970
   0.33357424  0.41743780  0.46218122
   0.33372456  0.41641976  0.79674000
   0.33334003  0.66668001  0.12941325
   0.33334282  0.66668558  0.46226210
   0.33333973  0.66667941  0.79611857
   0.33336115  0.91650593  0.12960017
   0.33356673  0.91615350  0.46218353
   0.33373698  0.91733185  0.79673951
   0.58404838  0.16809680  0.13469945
   0.58349257  0.16698517  0.46465060
   0.58433532  0.16867067  0.79483529
   0.58402927  0.41595222  0.13470326
   0.58353107  0.41641902  0.46467613
   0.58430703  0.41566275  0.79483313
   0.58314598  0.66664927  0.12960000
   0.58258335  0.66643959  0.46218407
   0.58358269  0.66627002  0.79674218
   0.58314481  0.91650593  0.12960017
   0.58258680  0.91615350  0.46218353
   0.58359489  0.91733185  0.79673951
   0.83354549  0.16646155  0.12983749
   0.83272002  0.16725927  0.46281851
   0.83305667  0.16695896  0.79717024
   0.83192292  0.41595222  0.13470326
   0.83288792  0.41641902  0.46467613
   0.83135569  0.41566275  0.79483313
   0.83353958  0.66707923  0.12983103
   0.83271617  0.66543240  0.46281463
   0.83304041  0.66608088  0.79717499
   0.83334332  0.91667126  0.12950021
   0.83280809  0.91639938  0.46250953
   0.83334158  0.91666843  0.79597651
   0.91682494  0.83364981  0.29610005
   0.91644933  0.83289859  0.62901777
   0.91663697  0.83327389  0.96294211
   0.91681830  0.08316100  0.29610283
   0.91646324  0.08352765  0.62901840
   0.91664646  0.08335263  0.96294502
   0.91756272  0.33255376  0.29671471
   0.91597536  0.33301803  0.62980198
   0.91601945  0.33393120  0.96416272
   0.91757771  0.58500275  0.29670911
   0.91596309  0.58292068  0.62980893
   0.91599331  0.58205455  0.96416075
   0.16643354  0.83357712  0.29574713
   0.16675653  0.83324360  0.62918060
   0.16662240  0.83337697  0.96306447
   0.16634290  0.08316100  0.29610283
   0.16706461  0.08352765  0.62901840
   0.16670635  0.08335263  0.96294502
   0.16642119  0.33284214  0.29575122
   0.16675353  0.33350683  0.62917393
   0.16662515  0.33325006  0.96307396
   0.16669713  0.58334689  0.29588622
   0.16628543  0.58314376  0.62946620
   0.16675030  0.58337903  0.96303676
   0.41665337  0.83330662  0.29588453
   0.41687281  0.83374550  0.62946318
   0.41663621  0.83327230  0.96303230
   0.41500812  0.08241844  0.29671150
   0.41706807  0.08404505  0.62979912
   0.41792036  0.08400985  0.96416382
   0.41499128  0.33255376  0.29671471
   0.41704291  0.33301803  0.62980198
   0.41791193  0.33393120  0.96416272
   0.41664998  0.58334689  0.29588622
   0.41685855  0.58314376  0.62946620
   0.41662895  0.58337903  0.96303676
   0.66714370  0.83357712  0.29574713
   0.66648719  0.83324360  0.62918060
   0.66675469  0.83337697  0.96306447
   0.66741053  0.08241844  0.29671150
   0.66697719  0.08404505  0.62979912
   0.66608970  0.08400985  0.96416382
   0.66665917  0.33331822  0.31576830
   0.66665900  0.33331788  0.61359589
   0.66666571  0.33333129  0.96573165
   0.66742523  0.58500275  0.29670911
   0.66695777  0.58292068  0.62980893
   0.66606141  0.58205455  0.96416075
   0.66677208  0.33354405  0.48559946
 
 position of ions in cartesian coordinates  (Angst):
   0.00000008  1.87420927  0.03510587
   0.00000008  1.87359433  5.23079481
   0.00000017  1.87451259 10.45115435
  -1.62053203  4.69204152  0.03388445
  -1.60139867  4.69727331  5.22530637
  -1.61446854  4.69419085 10.46746819
  -3.24418595  7.50407384  0.03386566
  -3.22989332  7.51800010  5.22536224
  -3.23925819  7.50812328 10.46749049
  -4.87418384 10.31634356  0.03519875
  -4.87456094 10.31649410  5.23087409
  -4.87396964 10.31608836 10.45107265
   3.24372451  1.87298957  0.03497941
   3.22981743  1.86470227  5.23274571
   3.23607864  1.86852211 10.47809237
   1.62053291  4.69204152  0.03388445
   1.60139955  4.69727331  5.22530637
   1.61446942  4.69419085 10.46746819
   0.00000070  7.50253134  0.03492181
   0.00000070  7.50231433  5.22970228
   0.00000070  7.50253356 10.45332474
  -1.62361043 10.31097055  0.03385248
  -1.62851823 10.29156772  5.22525532
  -1.62478470 10.30465762 10.46753581
   6.49717700  1.87600576  0.08879979
   6.49717700  1.78396241  5.14777419
   6.49717700  1.85642267 10.45145414
   4.87314610  4.68857860  0.08891089
   4.79347277  4.73487173  5.14832594
   4.85604925  4.69848329 10.45127690
   3.24418589  7.50407384  0.03386566
   3.22989326  7.51800010  5.22536224
   3.23925814  7.50812328 10.46749049
   1.62361090 10.31097055  0.03385248
   1.62851870 10.29156772  5.22525532
   1.62478595 10.30465762 10.46753581
   9.75063067  1.87298957  0.03497941
   9.76453774  1.86470227  5.23274571
   9.75827653  1.86852211 10.47809237
   8.12120814  4.68857860  0.08891089
   8.20088147  4.73487173  5.14832594
   8.13830500  4.69848329 10.45127690
   6.49717705  7.50755235  0.03490855
   6.49717705  7.52383364  5.23276005
   6.49717705  7.51620042 10.47809181
   4.87418374 10.31634356  0.03519875
   4.87456084 10.31649410  5.23087409
   4.87396953 10.31608836 10.45107265
   6.49717792  9.38773808  2.63214497
   6.49717792  9.39397643  7.84205679
   6.49717792  9.38113182 13.05395372
  11.37876393  0.93273539  2.63213360
  11.38443895  0.92949225  7.84208974
  11.37306398  0.93600266 13.05398296
   9.77127614  3.73979859  2.62943857
   9.84606862  3.71763177  7.88395544
   9.73964802  3.75439983 13.06927631
   8.12436980  6.59211064  2.62936646
   8.14246617  6.66782336  7.88405612
   8.12120012  6.55728074 13.06923160
  -3.25130206  9.37944509  2.62663238
  -3.24744363  9.37693660  7.84419073
  -3.25142400  9.37950135 13.05573310
   1.61559302  0.93273539  2.63213360
   1.60991800  0.92949225  7.84208974
   1.62129297  0.93600266 13.05398296
   0.00000171  3.74812318  2.62670720
   0.00000171  3.75292079  7.84401470
   0.00000171  3.74787769 13.05587636
  -1.61935520  6.56748506  2.62904580
  -1.61263412  6.57137033  7.85003441
  -1.62218011  6.56569640 13.05663302
   0.00000117  9.37224392  2.62898207
   0.00000117  9.36440656  7.85006339
   0.00000117  9.37556179 13.05656003
   4.85035207  0.92151683  2.62917852
   4.79350906  0.86758803  7.88413205
   4.87882296  0.94174812 13.06928533
   3.22308075  3.73979859  2.62943857
   3.14828903  3.71763177  7.88395544
   3.25470964  3.75439983 13.06927631
   1.61935865  6.56748506  2.62904580
   1.61263758  6.57137033  7.85003441
   1.62218356  6.56569640 13.05663302
   3.25130441  9.37944509  2.62663238
   3.24744598  9.37693660  7.84419073
   3.25142636  9.37950135 13.05573310
   8.14400506  0.92151683  2.62917852
   8.20084806  0.86758803  7.88413205
   8.11553417  0.94174812 13.06928533
   6.49717806  3.75127478  2.69311842
   6.49717806  3.75131250 13.10054671
   4.86998810  6.59211064  2.62936646
   4.85189173  6.66782336  7.88405612
   4.87315777  6.55728074 13.06923160
   0.00000007  1.87560053  2.02187052
   0.00000017  1.88170197  7.22066430
   0.00000007  1.87556919 12.42688456
  -1.62334415  4.69124250  2.02347157
  -1.62241380  4.69761124  7.21559108
  -1.63098149  4.68615479 12.43873565
  -3.24626735  7.50209763  2.02332013
  -3.24031881  7.49973793  7.21563554
  -3.25440628  7.49782977 12.43876966
  -4.87298232 10.31570504  2.02176225
  -4.86779477 10.31264544  7.22071668
  -4.87297812 10.31567321 12.42681599
   3.24449986  1.87326506  2.02702788
   3.26040930  1.88224218  7.22554042
   3.25408361  1.87886268 12.44545256
   1.62334503  4.69124250  2.02347157
   1.62241468  4.69761124  7.21559108
   1.63098237  4.68615479 12.43873565
   0.00000070  7.50244348  2.02040462
   0.00000070  7.50250623  7.21685379
   0.00000070  7.50243672 12.42903385
  -1.62288804 10.31384457  2.02332288
  -1.61792685 10.30987848  7.21562709
  -1.62337046 10.32313896 12.43872793
   6.49717700  1.89166727  2.10293302
   6.49717700  1.87915756  7.25414304
   6.49717700  1.89812522 12.40899929
   4.88656820  4.68089341  2.10299242
   4.87706146  4.68614646  7.25454167
   4.89205824  4.67763584 12.40896550
   3.24626730  7.50209763  2.02332013
   3.24031876  7.49973793  7.21563554
   3.25440623  7.49782977 12.43876966
   1.62288929 10.31384457  2.02332288
   1.61792810 10.30987848  7.21562709
   1.62337171 10.32313896 12.43872793
   9.74985531  1.87326506  2.02702788
   9.73394587  1.88224218  7.22554042
   9.74027157  1.87886268 12.44545256
   8.10778604  4.68089341  2.10299242
   8.11729279  4.68614646  7.25454167
   8.10229600  4.67763584 12.40896550
   6.49717705  7.50693611  2.02692700
   6.49717704  7.48840364  7.22547986
   6.49717705  7.49570123 12.44552677
   4.87298318 10.31570504  2.02176225
   4.86779467 10.31264544  7.22071668
   4.87297898 10.31567321 12.42681599
   6.49717792  9.38142820  4.62272542
   6.49717792  9.37297440  9.82024978
   6.49717792  9.37719776 15.03348941
  11.37315005  0.93584737  4.62276889
  11.36615408  0.93997342  9.82025953
  11.36967211  0.93800379 15.03353490
   9.76247448  3.74237377  4.63232145
   9.73883135  3.74759842  9.83249286
   9.73347119  3.75787479 15.05254563
   8.12246356  6.58329343  4.63223405
   8.11501027  6.55986295  9.83260138
   8.12103040  6.55011595 15.05251490
  -3.25320137  9.38061016  4.61721561
  -3.24683741  9.37685688  9.82279181
  -3.24944690  9.37835778 15.03539967
   1.62120690  0.93584737  4.62276889
   1.62820288  0.93997342  9.82025953
   1.62468464  0.93800379 15.03353490
   0.00000171  3.74561905  4.61727941
   0.00000171  3.75309908  9.82268761
   0.00000171  3.75020961 15.03554781
  -1.62398618  6.56465928  4.61938711
  -1.62801624  6.56237337  9.82725064
  -1.62350415  6.56502090 15.03496707
   0.00000117  9.37756614  4.61936072
   0.00000117  9.38250502  9.82720350
   0.00000117  9.37717989 15.03489750
   4.85727545  0.92749092  4.63227132
   4.87347475  0.94579593  9.83244816
   4.88477843  0.94539980 15.05256286
   3.23188318  3.74237377  4.63232145
   3.25552631  3.74759842  9.83249286
   3.26088570  3.75787479 15.05254563
   1.62398964  6.56465928  4.61938711
   1.62801969  6.56237337  9.82725064
   1.62350760  6.56502090 15.03496707
   3.25320372  9.38061016  4.61721561
   3.24683976  9.37685688  9.82279181
   3.24944926  9.37835778 15.03539967
   8.13708169  0.92749092  4.63227132
   8.12088238  0.94579593  9.83244816
   8.10957870  0.94539980 15.05256286
   6.49717806  3.75097658  4.92978686
   6.49717806  3.75097281  9.57948275
   6.49717806  3.75112370 15.07703974
   4.87189358  6.58329343  4.63223405
   4.87934686  6.55986295  9.83260138
   4.87332673  6.55011595 15.05251490
   6.49717806  3.75351794  7.58119754
 


--------------------------------------------------------------------------------------------------------


 use parallel FFT for orbitals z direction half grid
 k-point   1 :   0.0000 0.0000 0.0000  plane waves:   20744

 maximum and minimum number of plane-waves per node :      2599     2585

 maximum number of plane-waves:     20744
 maximum index in each direction: 
   IXMAX=   21   IYMAX=   21   IZMAX=   25
   IXMIN=  -21   IYMIN=  -21   IZMIN=    0


 real space projection operators:
  total allocation   :      30077.25 KBytes
  max/ min on nodes  :       4075.58       3477.14


 parallel 3D FFT for wavefunctions:
    minimum data exchange during FFTs selected (reduces bandwidth)
 parallel 3D FFT for charge:
    minimum data exchange during FFTs selected (reduces bandwidth)


 FFT grid for exact exchange (Hartree Fock) 
  NGX = 48; NGY = 48; NGZ = 54

 use parallel FFT for orbitals z direction half grid
 
 Radii for the augmentation spheres in the non-local exchange
 for species   1 augmentation radius   1.285 (default was   0.952)
       energy cutoff for augmentation   1600.0
 for species   2 augmentation radius   0.974 (default was   0.722)
       energy cutoff for augmentation   1600.0
 for species   3 augmentation radius   1.460 (default was   1.082)
       energy cutoff for augmentation   1600.0

 real space projection operators:
  total allocation   :      10609.00 KBytes
[...]
      8.12140      0.94529      9.83315         0.000385      0.000043     -0.000569
      8.10916      0.94594     15.05213         0.000071     -0.000756      0.000319
      6.49718      3.75120      4.93865        -0.000000     -0.001843      0.057911
      6.49718      3.75122      9.57736        -0.000000     -0.001788     -0.037523
      6.49718      3.75114     15.07683        -0.000000     -0.000471      0.001887
      4.87177      6.58417      4.63148        -0.000336      0.001268     -0.001389
      4.87914      6.56053      9.83314        -0.000019      0.000169      0.000958
      4.87359      6.54946     15.05210        -0.000404      0.001085      0.000709
      6.49718      3.75088      7.57489         0.000000      0.021594     -0.041790
 -----------------------------------------------------------------------------------
    total drift:                               -0.001301      0.006341     -0.889132


--------------------------------------------------------------------------------------------------------



  FREE ENERGIE OF THE ION-ELECTRON SYSTEM (eV)
  ---------------------------------------------------
  free  energy   TOTEN  =     -1236.55982913 eV

  energy  without entropy=    -1236.55982913  energy(sigma->0) =    -1236.55982913
 
 d Force = 0.3093145E-03[ 0.267E-03, 0.352E-03]  d Energy = 0.3821217E-03-0.728E-04
 d Force =-0.1171830E+00[-0.122E+00,-0.113E+00]  d Ewald  =-0.1171849E+00 0.195E-05


--------------------------------------------------------------------------------------------------------


    POTLOK:  cpu time      1.6011: real time      1.6282


--------------------------------------------------------------------------------------------------------




--------------------------------------------------------------------------------------------------------


 writing wavefunctions
     LOOP+:  cpu time   1205.1477: real time   1262.5406
    4ORBIT:  cpu time      0.0000: real time      0.0000



 total charge

# of ion       s       p       d       tot
------------------------------------------
    1        0.408   0.478   9.951  10.837
    2        0.409   0.480   9.952  10.841
    3        0.407   0.475   9.949  10.831
    4        0.408   0.477   9.951  10.835
    5        0.409   0.482   9.953  10.844
    6        0.407   0.474   9.949  10.830
    7        0.407   0.477   9.951  10.835
    8        0.409   0.482   9.953  10.844
    9        0.407   0.474   9.949  10.830
   10        0.408   0.478   9.951  10.837
   11        0.409   0.480   9.952  10.841
   12        0.407   0.475   9.949  10.831
   13        0.407   0.476   9.950  10.834
   14        0.408   0.481   9.953  10.842
   15        0.408   0.477   9.950  10.834
   16        0.408   0.477   9.951  10.835
   17        0.409   0.482   9.953  10.844
   18        0.407   0.474   9.949  10.830
   19        0.408   0.478   9.951  10.838
   20        0.408   0.479   9.951  10.838
   21        0.407   0.474   9.949  10.830
   22        0.407   0.477   9.951  10.835
   23        0.409   0.482   9.953  10.844
   24        0.407   0.474   9.949  10.830
   25        0.405   0.471   9.947  10.823
   26        0.419   0.481   9.952  10.851
   27        0.404   0.461   9.943  10.808
   28        0.405   0.471   9.947  10.823
   29        0.419   0.481   9.952  10.851
   30        0.404   0.461   9.943  10.807
   31        0.407   0.477   9.951  10.835
   32        0.409   0.482   9.953  10.844
   33        0.407   0.474   9.949  10.830
   34        0.407   0.477   9.951  10.835
   35        0.409   0.482   9.953  10.844
   36        0.407   0.474   9.949  10.830
   37        0.407   0.476   9.950  10.834
   38        0.408   0.481   9.953  10.842
   39        0.408   0.477   9.950  10.834
   40        0.405   0.471   9.947  10.823
   41        0.419   0.481   9.952  10.851
   42        0.404   0.461   9.943  10.807
   43        0.407   0.476   9.950  10.834
   44        0.408   0.481   9.953  10.842
   45        0.408   0.477   9.950  10.835
   46        0.408   0.478   9.951  10.837
   47        0.409   0.480   9.952  10.841
   48        0.407   0.475   9.949  10.831
   49        0.408   0.479   9.952  10.839
   50        0.407   0.474   9.949  10.830
   51        0.407   0.476   9.950  10.833
   52        0.408   0.479   9.952  10.839
   53        0.407   0.474   9.949  10.830
   54        0.407   0.476   9.950  10.833
   55        0.409   0.480   9.952  10.841
   56        0.414   0.479   9.948  10.841
   57        0.405   0.471   9.948  10.825
   58        0.409   0.480   9.952  10.841
   59        0.414   0.479   9.948  10.841
   60        0.405   0.471   9.948  10.824
   61        0.408   0.479   9.952  10.839
   62        0.409   0.478   9.950  10.837
   63        0.407   0.475   9.950  10.832
   64        0.408   0.479   9.952  10.839
   65        0.407   0.474   9.949  10.830
   66        0.407   0.476   9.950  10.833
   67        0.408   0.479   9.952  10.839
   68        0.409   0.478   9.950  10.837
   69        0.407   0.475   9.950  10.832
   70        0.408   0.480   9.952  10.840
   71        0.408   0.479   9.952  10.839
   72        0.407   0.477   9.950  10.834
   73        0.408   0.480   9.952  10.840
   74        0.408   0.479   9.952  10.839
   75        0.407   0.477   9.950  10.834
   76        0.409   0.480   9.952  10.841
   77        0.414   0.479   9.948  10.841
   78        0.405   0.471   9.948  10.824
   79        0.409   0.480   9.952  10.841
   80        0.414   0.479   9.948  10.841
   81        0.405   0.471   9.948  10.825
   82        0.408   0.480   9.952  10.840
   83        0.408   0.479   9.952  10.839
   84        0.407   0.477   9.950  10.834
   85        0.408   0.479   9.952  10.839
   86        0.409   0.478   9.950  10.837
   87        0.407   0.475   9.950  10.832
   88        0.409   0.480   9.952  10.841
   89        0.414   0.479   9.948  10.841
   90        0.405   0.471   9.948  10.824
   91        0.406   0.448   9.936  10.791
   92        0.408   0.478   9.950  10.835
   93        0.409   0.480   9.952  10.841
   94        0.414   0.479   9.948  10.841
   95        0.405   0.471   9.948  10.824
   96        1.573   3.532   0.000   5.106
   97        1.573   3.529   0.000   5.103
   98        1.573   3.529   0.000   5.103
   99        1.573   3.532   0.000   5.106
  100        1.574   3.533   0.000   5.107
  101        1.573   3.529   0.000   5.102
  102        1.573   3.532   0.000   5.106
  103        1.574   3.533   0.000   5.107
  104        1.573   3.529   0.000   5.102
  105        1.573   3.532   0.000   5.105
  106        1.573   3.529   0.000   5.103
  107        1.573   3.529   0.000   5.103
  108        1.573   3.532   0.000   5.106
  109        1.574   3.530   0.000   5.104
  110        1.573   3.530   0.000   5.103
  111        1.573   3.532   0.000   5.106
  112        1.574   3.533   0.000   5.107
  113        1.573   3.529   0.000   5.102
  114        1.573   3.533   0.000   5.106
  115        1.573   3.533   0.000   5.106
  116        1.573   3.529   0.000   5.103
  117        1.573   3.532   0.000   5.106
  118        1.574   3.533   0.000   5.107
  119        1.573   3.529   0.000   5.102
  120        1.574   3.524   0.000   5.098
  121        1.591   3.531   0.000   5.122
  122        1.573   3.525   0.000   5.098
  123        1.574   3.524   0.000   5.098
  124        1.591   3.531   0.000   5.121
  125        1.573   3.525   0.000   5.098
  126        1.573   3.532   0.000   5.106
  127        1.574   3.533   0.000   5.107
  128        1.573   3.529   0.000   5.102
  129        1.573   3.532   0.000   5.106
  130        1.574   3.533   0.000   5.107
  131        1.573   3.529   0.000   5.102
  132        1.573   3.532   0.000   5.106
  133        1.574   3.530   0.000   5.104
  134        1.573   3.530   0.000   5.103
  135        1.574   3.524   0.000   5.098
  136        1.591   3.531   0.000   5.121
  137        1.573   3.525   0.000   5.098
  138        1.573   3.532   0.000   5.106
  139        1.574   3.530   0.000   5.104
  140        1.573   3.530   0.000   5.103
  141        1.573   3.532   0.000   5.105
  142        1.573   3.529   0.000   5.103
  143        1.573   3.529   0.000   5.103
  144        1.573   3.534   0.000   5.107
  145        1.573   3.528   0.000   5.102
  146        1.573   3.531   0.000   5.104
  147        1.573   3.534   0.000   5.107
  148        1.573   3.528   0.000   5.102
  149        1.573   3.531   0.000   5.104
  150        1.574   3.535   0.000   5.109
  151        1.574   3.531   0.000   5.104
  152        1.573   3.528   0.000   5.102
  153        1.574   3.535   0.000   5.109
  154        1.574   3.531   0.000   5.104
  155        1.573   3.528   0.000   5.102
  156        1.573   3.535   0.000   5.108
  157        1.573   3.527   0.000   5.101
  158        1.573   3.531   0.000   5.104
  159        1.573   3.534   0.000   5.107
  160        1.573   3.528   0.000   5.102
  161        1.573   3.531   0.000   5.104
  162        1.573   3.535   0.000   5.108
  163        1.573   3.528   0.000   5.101
  164        1.573   3.531   0.000   5.104
  165        1.573   3.532   0.000   5.106
  166        1.573   3.528   0.000   5.102
  167        1.573   3.532   0.000   5.105
  168        1.573   3.532   0.000   5.106
  169        1.573   3.528   0.000   5.102
  170        1.573   3.532   0.000   5.105
  171        1.574   3.535   0.000   5.109
  172        1.574   3.531   0.000   5.104
  173        1.573   3.528   0.000   5.102
  174        1.574   3.535   0.000   5.109
  175        1.574   3.531   0.000   5.104
  176        1.573   3.528   0.000   5.102
  177        1.573   3.532   0.000   5.106
  178        1.573   3.528   0.000   5.102
  179        1.573   3.532   0.000   5.105
  180        1.573   3.535   0.000   5.108
  181        1.573   3.527   0.000   5.101
  182        1.573   3.531   0.000   5.104
  183        1.574   3.535   0.000   5.109
  184        1.574   3.531   0.000   5.104
  185        1.573   3.528   0.000   5.102
  186        1.576   3.502   0.000   5.078
  187        1.580   3.506   0.000   5.085
  188        1.573   3.529   0.000   5.102
  189        1.574   3.535   0.000   5.109
  190        1.574   3.531   0.000   5.104
  191        1.573   3.528   0.000   5.102
  192        2.323   6.225   3.780  12.328
--------------------------------------------------
tot        192.214 390.376 949.0391531.629



 magnetization (x)

# of ion       s       p       d       tot
------------------------------------------
    1       -0.000   0.000  -0.000  -0.000
    2       -0.000   0.000  -0.000   0.000
    3       -0.000   0.000  -0.000   0.000
    4       -0.000   0.000   0.000  -0.000
    5       -0.000   0.000   0.000   0.000
    6        0.000   0.000   0.000   0.000
    7       -0.000   0.000   0.000  -0.000
    8       -0.000   0.000   0.000   0.000
    9        0.000   0.000   0.000   0.000
   10       -0.000   0.000  -0.000  -0.000
   11       -0.000   0.000  -0.000   0.000
   12       -0.000   0.000  -0.000   0.000
   13       -0.000   0.000  -0.000   0.000
   14       -0.000   0.000   0.000   0.000
   15       -0.000   0.000  -0.000   0.000
   16       -0.000   0.000   0.000  -0.000
   17       -0.000   0.000   0.000   0.000
   18        0.000   0.000   0.000   0.000
   19       -0.000   0.000   0.000  -0.000
   20       -0.000   0.000   0.000  -0.000
   21       -0.000   0.000   0.000   0.000
   22       -0.000   0.000   0.000  -0.000
   23       -0.000   0.000   0.000   0.000
   24        0.000   0.000   0.000   0.000
   25       -0.000  -0.000  -0.000  -0.000
   26        0.001   0.001   0.002   0.004
   27        0.002   0.002   0.001   0.004
   28       -0.000  -0.000  -0.000  -0.000
   29        0.001   0.001   0.002   0.004
   30        0.002   0.002   0.001   0.004
   31       -0.000   0.000   0.000  -0.000
   32       -0.000   0.000   0.000   0.000
   33        0.000   0.000   0.000   0.000
   34       -0.000   0.000   0.000  -0.000
   35       -0.000   0.000   0.000   0.000
   36        0.000   0.000   0.000   0.000
   37       -0.000   0.000  -0.000   0.000
   38       -0.000   0.000   0.000   0.000
   39       -0.000   0.000  -0.000   0.000
   40       -0.000  -0.000  -0.000  -0.000
   41        0.001   0.001   0.002   0.004
   42        0.002   0.002   0.001   0.004
   43       -0.000   0.000  -0.000   0.000
   44       -0.000   0.000   0.000   0.000
   45       -0.000   0.000  -0.000   0.000
   46       -0.000   0.000  -0.000  -0.000
   47       -0.000   0.000  -0.000   0.000
   48       -0.000   0.000  -0.000   0.000
   49       -0.000  -0.000   0.000  -0.000
   50       -0.000  -0.000   0.000  -0.000
   51       -0.000  -0.000   0.000  -0.000
   52       -0.000  -0.000   0.000  -0.000
   53       -0.000  -0.000   0.000  -0.000
   54       -0.000  -0.000   0.000  -0.000
   55        0.000   0.000   0.000   0.000
   56        0.001   0.001   0.000   0.003
   57        0.000   0.000  -0.000   0.000
   58        0.000   0.000   0.000   0.000
   59        0.001   0.001   0.000   0.003
   60        0.000   0.000  -0.000   0.000
   61       -0.000  -0.000   0.000  -0.000
   62        0.000   0.000  -0.000   0.000
   63        0.000   0.000   0.000   0.000
   64       -0.000  -0.000   0.000  -0.000
   65       -0.000  -0.000   0.000  -0.000
   66       -0.000  -0.000   0.000  -0.000
   67       -0.000  -0.000   0.000  -0.000
   68        0.000   0.000  -0.000   0.000
   69        0.000   0.000   0.000   0.000
   70       -0.000   0.000  -0.000  -0.000
   71        0.000   0.000   0.000   0.000
   72       -0.000   0.000   0.000  -0.000
   73       -0.000   0.000  -0.000  -0.000
   74        0.000   0.000   0.000   0.000
   75       -0.000   0.000   0.000  -0.000
   76        0.000   0.000   0.000   0.000
   77        0.001   0.001   0.000   0.003
   78        0.000   0.000  -0.000   0.000
   79        0.000   0.000   0.000   0.000
   80        0.001   0.001   0.000   0.003
   81        0.000   0.000  -0.000   0.000
   82       -0.000   0.000  -0.000  -0.000
   83        0.000   0.000   0.000   0.000
   84       -0.000   0.000   0.000  -0.000
   85       -0.000  -0.000   0.000  -0.000
   86        0.000   0.000  -0.000   0.000
   87        0.000   0.000   0.000   0.000
   88        0.000   0.000   0.000   0.000
   89        0.001   0.001   0.000   0.003
   90        0.000   0.000  -0.000   0.000
   91        0.000  -0.000  -0.000  -0.000
   92       -0.000  -0.000  -0.000  -0.000
   93        0.000   0.000   0.000   0.000
   94        0.001   0.001   0.000   0.003
   95        0.000   0.000  -0.000   0.000
   96       -0.000   0.000   0.000   0.000
   97       -0.000   0.000   0.000   0.000
   98       -0.000   0.000   0.000   0.000
   99       -0.000   0.000   0.000   0.000
  100        0.000  -0.000   0.000  -0.000
  101        0.000   0.000   0.000   0.000
  102       -0.000   0.000   0.000   0.000
  103        0.000  -0.000   0.000  -0.000
  104        0.000   0.000   0.000   0.000
  105       -0.000   0.000   0.000   0.000
  106       -0.000   0.000   0.000   0.000
  107       -0.000   0.000   0.000   0.000
  108        0.000   0.000   0.000   0.000
  109       -0.000  -0.000   0.000  -0.000
  110       -0.000   0.000   0.000   0.000
  111       -0.000   0.000   0.000   0.000
  112        0.000  -0.000   0.000  -0.000
  113        0.000   0.000   0.000   0.000
  114       -0.000  -0.000   0.000  -0.000
  115        0.000   0.000   0.000   0.000
  116       -0.000   0.000   0.000   0.000
  117       -0.000   0.000   0.000   0.000
  118        0.000  -0.000   0.000  -0.000
  119        0.000   0.000   0.000   0.000
  120       -0.000  -0.000   0.000  -0.000
  121        0.000   0.032   0.000   0.032
  122        0.000   0.000   0.000   0.000
  123       -0.000  -0.000   0.000  -0.000
  124        0.000   0.032   0.000   0.032
  125        0.000   0.000   0.000   0.000
  126       -0.000   0.000   0.000   0.000
  127        0.000  -0.000   0.000  -0.000
  128        0.000   0.000   0.000   0.000
  129       -0.000   0.000   0.000   0.000
  130        0.000  -0.000   0.000  -0.000
  131        0.000   0.000   0.000   0.000
  132        0.000   0.000   0.000   0.000
  133       -0.000  -0.000   0.000  -0.000
  134       -0.000   0.000   0.000   0.000
  135       -0.000  -0.000   0.000  -0.000
  136        0.000   0.032   0.000   0.032
  137        0.000   0.000   0.000   0.000
  138        0.000   0.000   0.000   0.000
  139       -0.000  -0.000   0.000  -0.000
  140       -0.000   0.000   0.000   0.000
  141       -0.000   0.000   0.000   0.000
  142       -0.000   0.000   0.000   0.000
  143       -0.000   0.000   0.000   0.000
  144        0.000   0.000   0.000   0.000
  145       -0.000  -0.000   0.000  -0.000
  146       -0.000  -0.000   0.000  -0.000
  147        0.000   0.000   0.000   0.000
  148       -0.000  -0.000   0.000  -0.000
  149       -0.000  -0.000   0.000  -0.000
  150        0.000   0.001   0.000   0.001
  151        0.000   0.001   0.000   0.001
  152       -0.000  -0.000   0.000  -0.000
  153        0.000   0.001   0.000   0.001
  154        0.000   0.001   0.000   0.001
  155       -0.000  -0.000   0.000  -0.000
  156       -0.000   0.000   0.000   0.000
  157        0.000   0.000   0.000   0.000
  158       -0.000  -0.000   0.000  -0.000
  159        0.000   0.000   0.000   0.000
  160       -0.000  -0.000   0.000  -0.000
  161       -0.000  -0.000   0.000  -0.000
  162       -0.000   0.000   0.000   0.000
  163        0.000   0.000   0.000   0.000
  164       -0.000  -0.000   0.000  -0.000
  165       -0.000  -0.000   0.000  -0.000
  166        0.000   0.000   0.000   0.000
  167       -0.000   0.000   0.000   0.000
  168       -0.000  -0.000   0.000  -0.000
  169        0.000   0.000   0.000   0.000
  170       -0.000   0.000   0.000   0.000
  171        0.000   0.001   0.000   0.001
  172        0.000   0.001   0.000   0.001
  173       -0.000  -0.000   0.000  -0.000
  174        0.000   0.001   0.000   0.001
  175        0.000   0.001   0.000   0.001
  176       -0.000  -0.000   0.000  -0.000
  177       -0.000  -0.000   0.000  -0.000
  178        0.000   0.000   0.000   0.000
  179       -0.000   0.000   0.000   0.000
  180       -0.000   0.000   0.000   0.000
  181        0.000   0.000   0.000   0.000
  182       -0.000  -0.000   0.000  -0.000
  183        0.000   0.001   0.000   0.001
  184        0.000   0.001   0.000   0.001
  185       -0.000  -0.000   0.000  -0.000
  186       -0.000  -0.007   0.000  -0.008
  187        0.001   0.045   0.000   0.045
  188       -0.000   0.000   0.000   0.000
  189        0.000   0.001   0.000   0.001
  190        0.000   0.001   0.000   0.001
  191       -0.000  -0.000   0.000  -0.000
  192        0.016   0.010   1.651   1.677
--------------------------------------------------
tot          0.034   0.164   1.661   1.859
 

 total amount of memory used by VASP MPI-rank0    87791. kBytes
=======================================================================

   base      :      30000. kBytes
   nonlr-proj:       6700. kBytes
   fftplans  :       2144. kBytes
   grid      :       5113. kBytes
   one-center:        373. kBytes
   HF        :        129. kBytes
   wavefun   :       5829. kBytes
   fock_wrk  :      37503. kBytes
 
  
  
 General timing and accounting informations for this job:
 ========================================================
  
                  Total CPU time used (sec):     6878.109
                            User time (sec):     6257.853
                          System time (sec):      620.256
                         Elapsed time (sec):     7206.641
  
                   Maximum memory used (kb):      696120.
                   Average memory used (kb):          N/A
  
                          Minor page faults:      1169385
                          Major page faults:         1138
                 Voluntary context switches:      2242638
