nqpoint: 240    
npath: 4      
segment_nqpoint:
- 60
- 60
- 60
- 60
labels:
- [ '$\Gamma$', 'K' ]
- [ 'K', 'M' ]
- [ 'M', '$\Gamma$' ]
- [ '$\Gamma$', 'A' ]
reciprocal_lattice:
- [   0.30777049,   0.17769138,   0.00000000 ] # a*
- [  -0.00000000,   0.35538276,   0.00000000 ] # b*
- [   0.00000000,   0.00000000,   0.19210716 ] # c*
natom: 4      
lattice:
- [     3.249174359158679,     0.000000000000104,     0.000000000000000 ] # a
- [    -1.624587179079159,     2.813867535622356,     0.000000000000000 ] # b
- [     0.000000000000000,     0.000000000000000,     5.205427994679483 ] # c
points:
- symbol: Zn # 1
  coordinates: [  0.666666999999997,  0.333333000000003,  0.500144748248274 ]
  mass: 65.380000
- symbol: Zn # 2
  coordinates: [  0.333333000000003,  0.666666999999997,  0.000144748248274 ]
  mass: 65.380000
- symbol: O  # 3
  coordinates: [  0.666666999999997,  0.333333000000003,  0.881555251751721 ]
  mass: 15.999400
- symbol: O  # 4
  coordinates: [  0.333333000000003,  0.666666999999997,  0.381555251751721 ]
  mass: 15.999400

phonon:
- q-position: [    0.0000000,    0.0000000,    0.0000000 ]
  distance:    0.0000000
  band:
  - # 1
    frequency:   -0.0074895840
    eigenvector:
    - # atom 1
      - [ -0.09333057044918,  0.00000000000000 ]
      - [  0.62666420681771,  0.00000000000000 ]
      - [ -0.00000000004030,  0.00000000000000 ]
    - # atom 2
      - [ -0.09333057037666,  0.00000000000000 ]
      - [  0.62666420663387,  0.00000000000000 ]
      - [ -0.00000000004030,  0.00000000000000 ]
    - # atom 3
      - [ -0.04625115696006,  0.00000000000000 ]
      - [  0.31055145651805,  0.00000000000000 ]
      - [ -0.00000000001995,  0.00000000000000 ]
    - # atom 4
      - [ -0.04625115692348,  0.00000000000000 ]
      - [  0.31055145642532,  0.00000000000000 ]
      - [ -0.00000000001995,  0.00000000000000 ]
  - # 2
    frequency:   -0.0074895840
    eigenvector:
    - # atom 1
      - [ -0.62666420663387, -0.00000000000000 ]
      - [ -0.09333057037666,  0.00000000000000 ]
      - [ -0.00000000008880,  0.00000000000000 ]
    - # atom 2
      - [ -0.62666420681771,  0.00000000000000 ]
      - [ -0.09333057044918,  0.00000000000000 ]
      - [ -0.00000000008880,  0.00000000000000 ]
    - # atom 3
      - [ -0.31055145642532,  0.00000000000000 ]
      - [ -0.04625115692348,  0.00000000000000 ]
      - [ -0.00000000004397,  0.00000000000000 ]
    - # atom 4
      - [ -0.31055145651805,  0.00000000000000 ]
      - [ -0.04625115696006,  0.00000000000000 ]
      - [ -0.00000000004397,  0.00000000000000 ]
  - # 3
    frequency:    0.0023550639
    eigenvector:
    - # atom 1
      - [ -0.00000000009375,  0.00000000000000 ]
      - [  0.00000000002678,  0.00000000000000 ]
      - [  0.63369583851200,  0.00000000000000 ]
    - # atom 2
      - [ -0.00000000009375,  0.00000000000000 ]
      - [  0.00000000002678,  0.00000000000000 ]
      - [  0.63369583851200,  0.00000000000000 ]
    - # atom 3
      - [ -0.00000000004646,  0.00000000000000 ]
      - [  0.00000000001327,  0.00000000000000 ]
      - [  0.31373489485961,  0.00000000000000 ]
    - # atom 4
      - [ -0.00000000004646,  0.00000000000000 ]
      - [  0.00000000001327,  0.00000000000000 ]
      - [  0.31373489485961,  0.00000000000000 ]
  - # 4
    frequency:    3.0921242647
    eigenvector:
    - # atom 1
      - [  0.63329325141204,  0.00000000000000 ]
      - [  0.16969228874523,  0.00000000000000 ]
      - [  0.00000000000000,  0.00000000000000 ]
    - # atom 2
      - [ -0.63329325136651,  0.00000000000000 ]
      - [ -0.16969228873302,  0.00000000000000 ]
      - [  0.00000000000000,  0.00000000000000 ]
    - # atom 3
      - [ -0.25582282658662,  0.00000000000000 ]
      - [ -0.06854827658429,  0.00000000000000 ]
      - [ -0.00000000000000,  0.00000000000000 ]
    - # atom 4
      - [  0.25582282681212,  0.00000000000000 ]
      - [  0.06854827664471,  0.00000000000000 ]
      - [  0.00000000000000,  0.00000000000000 ]
  - # 5
    frequency:    3.0921242657
    eigenvector:
    - # atom 1
      - [ -0.16969228873302,  0.00000000000000 ]
      - [  0.63329325136651,  0.00000000000000 ]
      - [ -0.00000000000000,  0.00000000000000 ]
    - # atom 2
      - [  0.16969228874523,  0.00000000000000 ]
      - [ -0.63329325141204,  0.00000000000000 ]
      - [ -0.00000000000000,  0.00000000000000 ]
    - # atom 3
      - [  0.06854827664471,  0.00000000000000 ]
      - [ -0.25582282681212,  0.00000000000000 ]
      - [ -0.00000000000000,  0.00000000000000 ]
    - # atom 4
      - [ -0.06854827658429,  0.00000000000000 ]
      - [  0.25582282658662,  0.00000000000000 ]
      - [ -0.00000000000000,  0.00000000000000 ]
  - # 6
    frequency:    8.0885304738
    eigenvector:
    - # atom 1
      - [ -0.00000000000000,  0.00000000000000 ]
      - [ -0.00000000000000,  0.00000000000000 ]
      - [ -0.70443803138192,  0.00000000000000 ]
    - # atom 2
      - [  0.00000000000000,  0.00000000000000 ]
      - [ -0.00000000000000,  0.00000000000000 ]
      - [  0.70443803138192,  0.00000000000000 ]
    - # atom 3
      - [  0.00000000000000,  0.00000000000000 ]
      - [ -0.00000000000000,  0.00000000000000 ]
      - [ -0.06137637935535,  0.00000000000000 ]
    - # atom 4
      - [  0.00000000000000,  0.00000000000000 ]
      - [  0.00000000000000,  0.00000000000000 ]
      - [  0.06137637935535,  0.00000000000000 ]
  - # 7
    frequency:   11.5895449590
    eigenvector:
    - # atom 1
      - [ -0.00000000000000,  0.00000000000000 ]
      - [ -0.00000000000000,  0.00000000000000 ]
      - [ -0.31373489485961,  0.00000000000000 ]
    - # atom 2
      - [ -0.00000000000000,  0.00000000000000 ]
      - [ -0.00000000000000,  0.00000000000000 ]
      - [ -0.31373489485961,  0.00000000000000 ]
    - # atom 3
      - [  0.00000000000000,  0.00000000000000 ]
      - [  0.00000000000000,  0.00000000000000 ]
      - [  0.63369583851200,  0.00000000000000 ]
    - # atom 4
      - [  0.00000000000000,  0.00000000000000 ]
      - [  0.00000000000000,  0.00000000000000 ]
      - [  0.63369583851200,  0.00000000000000 ]
  - # 8
    frequency:   12.4757480761
    eigenvector:
    - # atom 1
      - [ -0.30327820541215,  0.00000000000000 ]
      - [ -0.08126319625060,  0.00000000000000 ]
      - [  0.00000000000000,  0.00000000000000 ]
    - # atom 2
      - [ -0.30327820446541,  0.00000000000000 ]
      - [ -0.08126319599692,  0.00000000000000 ]
      - [  0.00000000000000,  0.00000000000000 ]
    - # atom 3
      - [  0.61198745478747,  0.00000000000000 ]
      - [  0.16398163716945,  0.00000000000000 ]
      - [ -0.00000000000000,  0.00000000000000 ]
    - # atom 4
      - [  0.61198745664567,  0.00000000000000 ]
      - [  0.16398163766735,  0.00000000000000 ]
      - [ -0.00000000000000,  0.00000000000000 ]
  - # 9
    frequency:   12.4757480800
    eigenvector:
    - # atom 1
      - [ -0.08126319599692,  0.00000000000000 ]
      - [  0.30327820446541,  0.00000000000000 ]
      - [ -0.00000000000000,  0.00000000000000 ]
    - # atom 2
      - [ -0.08126319625060,  0.00000000000000 ]
      - [  0.30327820541215,  0.00000000000000 ]
      - [ -0.00000000000000,  0.00000000000000 ]
    - # atom 3
      - [  0.16398163766735,  0.00000000000000 ]
      - [ -0.61198745664567,  0.00000000000000 ]
      - [  0.00000000000000,  0.00000000000000 ]
    - # atom 4
      - [  0.16398163716945,  0.00000000000000 ]
      - [ -0.61198745478747,  0.00000000000000 ]
      - [  0.00000000000000,  0.00000000000000 ]
  - # 10
    frequency:   13.3649989481
    eigenvector:
    - # atom 1
      - [ -0.25582301250151,  0.00000000000000 ]
      - [ -0.06854758163853,  0.00000000000000 ]
      - [ -0.00000000000000,  0.00000000000000 ]
    - # atom 2
      - [  0.25582301327994,  0.00000000000000 ]
      - [  0.06854758184711,  0.00000000000000 ]
      - [ -0.00000000000000,  0.00000000000000 ]
    - # atom 3
      - [ -0.63329371327521,  0.00000000000000 ]
      - [ -0.16969056883278,  0.00000000000000 ]
      - [  0.00000000000000,  0.00000000000000 ]
    - # atom 4
      - [  0.63329371134232,  0.00000000000000 ]
      - [  0.16969056831487,  0.00000000000000 ]
      - [  0.00000000000000,  0.00000000000000 ]
  - # 11
    frequency:   13.3649989523
    eigenvector:
    - # atom 1
      - [  0.06854758184711,  0.00000000000000 ]
      - [ -0.25582301327994,  0.00000000000000 ]
      - [  0.00000000000000,  0.00000000000000 ]
    - # atom 2
      - [ -0.06854758163853,  0.00000000000000 ]
      - [  0.25582301250151,  0.00000000000000 ]
      - [ -0.00000000000000,  0.00000000000000 ]
    - # atom 3
      - [  0.16969056831487,  0.00000000000000 ]
      - [ -0.63329371134232,  0.00000000000000 ]
      - [ -0.00000000000000,  0.00000000000000 ]
    - # atom 4
      - [ -0.16969056883278,  0.00000000000000 ]
      - [  0.63329371327521,  0.00000000000000 ]
      - [ -0.00000000000000,  0.00000000000000 ]
  - # 12
    frequency:   16.9473746076
    eigenvector:
    - # atom 1
      - [  0.00000000000000,  0.00000000000000 ]
      - [  0.00000000000000,  0.00000000000000 ]
      - [ -0.06137637935535,  0.00000000000000 ]
    - # atom 2
      - [  0.00000000000000,  0.00000000000000 ]
      - [  0.00000000000000,  0.00000000000000 ]
      - [  0.06137637935535,  0.00000000000000 ]
    - # atom 3
      - [ -0.00000000000000,  0.00000000000000 ]
      - [  0.00000000000000,  0.00000000000000 ]
      - [  0.70443803138192,  0.00000000000000 ]
    - # atom 4
      - [ -0.00000000000000,  0.00000000000000 ]
      - [  0.00000000000000,  0.00000000000000 ]
      - [ -0.70443803138192,  0.00000000000000 ]

- q-position: [    0.0056497,    0.0056497,    0.0000000 ]
  distance:    0.0034776
  band:
  - # 1
    frequency:    0.0700538197
    eigenvector:
    - # atom 1
      - [ -0.05298485687246,  0.00000000000000 ]
      - [ -0.09175929009207,  0.00126958224570 ]
      - [ -0.00648381590253, -0.62484774304998 ]
    - # atom 2
      - [ -0.05297344791898,  0.00109949047458 ]
      - [ -0.09176587705446,  0.00063479112488 ]
      - [ -0.00648381590253, -0.62484774304997 ]
    - # atom 3
      - [ -0.02343246762787, -0.00033726163182 ]
      - [ -0.04057231704515,  0.00075610494156 ]
      - [ -0.00321655981221, -0.30998106196179 ]
    - # atom 4
      - [ -0.02342042348582,  0.00082343690214 ]
      - [ -0.04057927073384,  0.00008597533112 ]
      - [ -0.00321655981221, -0.30998106196179 ]
  - # 2
    frequency:    0.0986274787
    eigenvector:
    - # atom 1
      - [ -0.54870552043000,  0.00000000000000 ]
      - [  0.31677366246568, -0.00523381300490 ]
      - [ -0.00002995556352,  0.00000012379940 ]
    - # atom 2
      - [ -0.54868679923989,  0.00453261502323 ]
      - [  0.31680608851811,  0.00261690650093 ]
      - [  0.00002995556836, -0.00000012365411 ]
    - # atom 3
      - [ -0.27185082121397, -0.00091168209202 ]
      - [  0.15693373859115, -0.00417208560932 ]
      - [  0.00001250302261, -0.00000005160653 ]
    - # atom 4
      - [ -0.27183401497795,  0.00315729108056 ]
      - [  0.15696284784581,  0.00287558265526 ]
      - [ -0.00001250302021,  0.00000005167794 ]
  - # 3
    frequency:    0.2224410615
    eigenvector:
    - # atom 1
      - [  0.31238118022545,  0.00000000000000 ]
      - [  0.54094860993984, -0.00896663714245 ]
      - [ -0.00131082061193, -0.10544616396538 ]
    - # atom 2
      - [  0.31228464807963, -0.00776533554840 ]
      - [  0.54100434280026, -0.00448331856990 ]
      - [ -0.00131082061191, -0.10544616396538 ]
    - # atom 3
      - [  0.15517810104049,  0.00155131896358 ]
      - [  0.26867645444469, -0.00534935680056 ]
      - [ -0.00059526168256, -0.04788455447319 ]
    - # atom 4
      - [  0.15509158434993, -0.00540833836268 ]
      - [  0.26872640487930, -0.00133119676678 ]
      - [ -0.00059526168257, -0.04788455447319 ]
  - # 4
    frequency:    3.0922255304
    eigenvector:
    - # atom 1
      - [  0.56779601828021,  0.00000000000000 ]
      - [ -0.32779252545615,  0.00568077158438 ]
      - [  0.00012049731008, -0.00000052235826 ]
    - # atom 2
      - [ -0.56777470440810,  0.00491969321985 ]
      - [  0.32782944216017,  0.00284038579035 ]
      - [  0.00012049731301, -0.00000052168209 ]
    - # atom 3
      - [ -0.22931857123625, -0.00096314601549 ]
      - [  0.13237754379827, -0.00396249701487 ]
      - [  0.00007710839295, -0.00000033418861 ]
    - # atom 4
      - [  0.22930161800403, -0.00295005056812 ]
      - [ -0.13240690765357, -0.00281535730233 ]
      - [  0.00007710839413, -0.00000033391652 ]
  - # 5
    frequency:    3.0999974669
    eigenvector:
    - # atom 1
      - [ -0.32786617222510,  0.00000000000000 ]
      - [ -0.56775225182230,  0.00987070217589 ]
      - [  0.00007053471367,  0.00540974788717 ]
    - # atom 2
      - [  0.32775471592734, -0.00854827760162 ]
      - [  0.56781660115511, -0.00493535108812 ]
      - [ -0.00007053469861, -0.00540974788736 ]
    - # atom 3
      - [  0.13233414324283,  0.00167332873661 ]
      - [  0.22910717037728, -0.00494947696452 ]
      - [  0.00002836697237,  0.00217564020697 ]
    - # atom 4
      - [ -0.13224552940339,  0.00512303653494 ]
      - [ -0.22915833160874,  0.00102559307807 ]
      - [ -0.00002836696271, -0.00217564020709 ]
  - # 6
    frequency:    8.0870463508
    eigenvector:
    - # atom 1
      - [  0.00238104762676,  0.00000000000000 ]
      - [  0.00412361341097,  0.00005148292194 ]
      - [ -0.00659543752609,  0.70438450712606 ]
    - # atom 2
      - [ -0.00238063015451, -0.00004458551826 ]
      - [ -0.00412385443869, -0.00002574146101 ]
      - [  0.00659543752609, -0.70438450712606 ]
    - # atom 3
      - [ -0.00155427990269, -0.00000100134671 ]
      - [ -0.00269179874017, -0.00003302865633 ]
      - [ -0.00057463372584,  0.06137016568719 ]
    - # atom 4
      - [  0.00155402613983,  0.00002810298211 ]
      - [  0.00269194525022,  0.00001738151991 ]
      - [  0.00057463372584, -0.06137016568719 ]
  - # 7
    frequency:   11.5905895503
    eigenvector:
    - # atom 1
      - [ -0.00099372528486,  0.00000000000000 ]
      - [ -0.00171798947442,  0.00008554506658 ]
      - [ -0.01170076833068, -0.31345875562976 ]
    - # atom 2
      - [ -0.00099095987958,  0.00007408420057 ]
      - [ -0.00171958608191,  0.00004277253339 ]
      - [ -0.01170076833068, -0.31345875562976 ]
    - # atom 3
      - [ -0.00240301880236,  0.00000453762329 ]
      - [ -0.00415481945384,  0.00020425920035 ]
      - [  0.02363836752758,  0.63326211244471 ]
    - # atom 4
      - [ -0.00239666980560,  0.00017462484538 ]
      - [ -0.00415848504882,  0.00010605929719 ]
      - [  0.02363836752758,  0.63326211244471 ]
  - # 8
    frequency:   12.4774449297
    eigenvector:
    - # atom 1
      - [ -0.27186257280170,  0.00000000000000 ]
      - [  0.15695016389769, -0.00247094594311 ]
      - [ -0.00008142999810,  0.00000032081942 ]
    - # atom 2
      - [ -0.27185415031180,  0.00213990248901 ]
      - [  0.15696475207455,  0.00123547298179 ]
      - [  0.00008143000075, -0.00000032014548 ]
    - # atom 3
      - [  0.54866301789294,  0.00281400681556 ]
      - [ -0.31672545815875,  0.00986067279811 ]
      - [ -0.00002838426410,  0.00000011230870 ]
    - # atom 4
      - [  0.54862387208629, -0.00713259196345 ]
      - [ -0.31679326066702, -0.00736733713993 ]
      - [  0.00002838426881, -0.00000011110970 ]
  - # 9
    frequency:   12.4951278087
    eigenvector:
    - # atom 1
      - [ -0.15691327858038,  0.00000000000000 ]
      - [ -0.27173581063474,  0.00408383020104 ]
      - [  0.00003442702906,  0.00305446926594 ]
    - # atom 2
      - [ -0.15687341546202,  0.00353669978013 ]
      - [ -0.27175882562306,  0.00204191508087 ]
      - [  0.00003442701103,  0.00305446926614 ]
    - # atom 3
      - [  0.31685182230027,  0.00521106206476 ]
      - [  0.54857502873905, -0.01125347631320 ]
      - [  0.00006009122947,  0.00533147522106 ]
    - # atom 4
      - [  0.31665387778164, -0.01235132492126 ]
      - [  0.54868931208894, -0.00111382490534 ]
      - [  0.00006009122314,  0.00533147522113 ]
  - # 10
    frequency:   13.3662601966
    eigenvector:
    - # atom 1
      - [ -0.22933723566312,  0.00000000000000 ]
      - [  0.13240485800769, -0.00123682503472 ]
      - [  0.00003798577475, -0.00000008922243 ]
    - # atom 2
      - [  0.22933473471244, -0.00107112335436 ]
      - [ -0.13240918977535, -0.00061841246656 ]
      - [  0.00003798577713, -0.00000008820390 ]
    - # atom 3
      - [ -0.56774840808447, -0.00375904238041 ]
      - [  0.32776185363305, -0.00957268739160 ]
      - [ -0.00002030593355,  0.00000004625344 ]
    - # atom 4
      - [  0.56772465800687, -0.00641067967117 ]
      - [ -0.32780298992261, -0.00804176584215 ]
      - [ -0.00002030592812,  0.00000004857950 ]
  - # 11
    frequency:   13.3700668734
    eigenvector:
    - # atom 1
      - [ -0.13232868902467,  0.00000000000000 ]
      - [ -0.22918264440842,  0.00232317517266 ]
      - [ -0.00000699726632, -0.00092039440465 ]
    - # atom 2
      - [  0.13231339416768, -0.00201192619745 ]
      - [  0.22919147490862, -0.00116158767292 ]
      - [  0.00000699722437,  0.00092039440497 ]
    - # atom 3
      - [ -0.32787224139128, -0.00614679909562 ]
      - [ -0.56774042858908,  0.00930419699736 ]
      - [ -0.00001601362460, -0.00210638042408 ]
    - # atom 4
      - [  0.32774088573249, -0.01113106011687 ]
      - [  0.56781626691275,  0.00067119265278 ]
      - [  0.00001601364699,  0.00210638042391 ]
  - # 12
    frequency:   16.9462080508
    eigenvector:
    - # atom 1
      - [ -0.00040963992821,  0.00000000000000 ]
      - [ -0.00070884469101,  0.00002521362002 ]
      - [  0.00163678597592,  0.06136906554458 ]
    - # atom 2
      - [  0.00040905754620, -0.00002183563547 ]
      - [  0.00070918092942, -0.00001260681000 ]
      - [ -0.00163678597592, -0.06136906554458 ]
    - # atom 3
      - [  0.00125356954727, -0.00002285153856 ]
      - [  0.00217059477843, -0.00006400224185 ]
      - [ -0.01878135587344, -0.70418141196657 ]
    - # atom 4
      - [ -0.00125300544382,  0.00004400179800 ]
      - [ -0.00217092046371,  0.00005179113385 ]
      - [  0.01878135587344,  0.70418141196657 ]

- q-position: [    0.0112993,    0.0112993,    0.0000000 ]
  distance:    0.0069552
  band:
  - # 1
    frequency:    0.1525795445
    eigenvector:
    - # atom 1
      - [ -0.03090988255048,  0.00000000000000 ]
      - [ -0.05352814693875,  0.00081648004124 ]
      - [ -0.00721621568264, -0.63081763344341 ]
    - # atom 2
      - [ -0.03090179386349,  0.00070709245879 ]
      - [ -0.05353281694434,  0.00040824002076 ]
      - [ -0.00721621568263, -0.63081763344341 ]
    - # atom 3
      - [ -0.00966137244177, -0.00053279510144 ]
      - [ -0.01671699478381,  0.00056265214340 ]
      - [ -0.00357763620391, -0.31274508727320 ]
    - # atom 4
      - [ -0.00964665596778,  0.00075366860122 ]
      - [ -0.01672549134402, -0.00018008802073 ]
      - [ -0.00357763620392, -0.31274508727320 ]
  - # 2
    frequency:    0.1978003227
    eigenvector:
    - # atom 1
      - [ -0.54874299523867,  0.00000000000000 ]
      - [  0.31672994062329, -0.01049826439397 ]
      - [ -0.00011973523190,  0.00000099202412 ]
    - # atom 2
      - [ -0.54866767242700,  0.00909176366663 ]
      - [  0.31686040355998,  0.00524913219535 ]
      - [  0.00011973523254, -0.00000099192581 ]
    - # atom 3
      - [ -0.27166831032511, -0.00180276058018 ]
      - [  0.15677022337822, -0.00831960341071 ]
      - [  0.00004976659412, -0.00000041228043 ]
    - # atom 4
      - [ -0.27160115120981,  0.00630360761784 ]
      - [  0.15688654637803,  0.00572103816280 ]
      - [ -0.00004976659382,  0.00000041232779 ]
  - # 3
    frequency:    0.4408849112
    eigenvector:
    - # atom 1
      - [  0.31549492735918,  0.00000000000000 ]
      - [  0.54600359363482, -0.01809461489200 ]
      - [ -0.00151040695138, -0.06078106066777 ]
    - # atom 2
      - [  0.31510551880439, -0.01567039616121 ]
      - [  0.54622841876892, -0.00904730744321 ]
      - [ -0.00151040695129, -0.06078106066777 ]
    - # atom 3
      - [  0.15648828195128,  0.00313804067039 ]
      - [  0.27064264831464, -0.01078236568099 ]
      - [ -0.00053098653438, -0.02136770144148 ]
    - # atom 4
      - [  0.15613926773267, -0.01090682292323 ]
      - [  0.27084415176785, -0.00267355989843 ]
      - [ -0.00053098653442, -0.02136770144148 ]
  - # 4
    frequency:    3.0926216703
    eigenvector:
    - # atom 1
      - [  0.56779831957069,  0.00000000000000 ]
      - [ -0.32772116977718,  0.01129681274959 ]
      - [  0.00046130761107, -0.00000397466305 ]
    - # atom 2
      - [ -0.56771402852637,  0.00978332718629 ]
      - [  0.32786716614310,  0.00564840637113 ]
      - [  0.00046130761401, -0.00000397432229 ]
    - # atom 3
      - [ -0.22918004134738, -0.00189298922464 ]
      - [  0.13224020571939, -0.00783815359230 ]
      - [  0.00029823905250, -0.00000256961481 ]
    - # atom 4
      - [  0.22911340239439, -0.00584154576963 ]
      - [ -0.13235562776744, -0.00555845349107 ]
      - [  0.00029823905368, -0.00000256947794 ]
  - # 5
    frequency:    3.1234163810
    eigenvector:
    - # atom 1
      - [ -0.32801336520883,  0.00000000000000 ]
      - [ -0.56761742128890,  0.01981002148148 ]
      - [  0.00028442161747,  0.01086854099821 ]
    - # atom 2
      - [  0.32756440593597, -0.01715598122702 ]
      - [  0.56787662805538, -0.00990501074104 ]
      - [ -0.00028442160298, -0.01086854099859 ]
    - # atom 3
      - [  0.13206658649785,  0.00332023118330 ]
      - [  0.22833679798339, -0.00988771124081 ]
      - [  0.00011398481561,  0.00435567673342 ]
    - # atom 4
      - [ -0.13171216718958,  0.01022312439859 ]
      - [ -0.22854142207388,  0.00206845096467 ]
      - [ -0.00011398480619, -0.00435567673366 ]
  - # 6
    frequency:    8.0826079068
    eigenvector:
    - # atom 1
      - [  0.00479905328743,  0.00000000000000 ]
      - [  0.00830857269717,  0.00020058342043 ]
      - [ -0.01274963459207,  0.70423128939098 ]
    - # atom 2
      - [ -0.00479590837843, -0.00017371033768 ]
      - [ -0.00831038841123, -0.00010029171036 ]
      - [  0.01274963459207, -0.70423128939098 ]
    - # atom 3
      - [ -0.00309528086714, -0.00000261140793 ]
      - [ -0.00535895068519, -0.00012786605007 ]
      - [ -0.00111073930124,  0.06135214030187 ]
    - # atom 4
      - [  0.00309334699802,  0.00010942954380 ]
      - [  0.00536006720504,  0.00006619457085 ]
      - [  0.00111073930124, -0.06135214030187 ]
  - # 7
    frequency:   11.5937283821
    eigenvector:
    - # atom 1
      - [ -0.00208725052528,  0.00000000000000 ]
      - [ -0.00358938683316,  0.00035195911538 ]
      - [ -0.02295204932630, -0.31265766888900 ]
    - # atom 2
      - [ -0.00206487490711,  0.00030480553409 ]
      - [ -0.00360230540234,  0.00017597955808 ]
      - [ -0.02295204932632, -0.31265766888900 ]
    - # atom 3
      - [ -0.00462346444798,  0.00000498880433 ]
      - [ -0.00795168473486,  0.00077680539143 ]
      - [  0.04639708855446,  0.63203095045840 ]
    - # atom 4
      - [ -0.00457462878093,  0.00067023880270 ]
      - [ -0.00797988002030,  0.00039272312693 ]
      - [  0.04639708855446,  0.63203095045840 ]
  - # 8
    frequency:   12.4825369485
    eigenvector:
    - # atom 1
      - [ -0.27171411855790,  0.00000000000000 ]
      - [  0.15683336888852, -0.00506213967175 ]
      - [ -0.00032274384117,  0.00000260397454 ]
    - # atom 2
      - [ -0.27167874965423,  0.00438394180088 ]
      - [  0.15689462962339,  0.00253106985608 ]
      - [  0.00032274384390, -0.00000260363554 ]
    - # atom 3
      - [  0.54857967067079,  0.00539714843237 ]
      - [ -0.31653959607136,  0.01956757595550 ]
      - [ -0.00011205298801,  0.00000090430737 ]
    - # atom 4
      - [  0.54842118453547, -0.01424744482381 ]
      - [ -0.31681410209085, -0.01445785528140 ]
      - [  0.00011205299286, -0.00000090370682 ]
  - # 9
    frequency:   12.5527856069
    eigenvector:
    - # atom 1
      - [ -0.15668347820219,  0.00000000000000 ]
      - [ -0.27124244959423,  0.00714933710695 ]
      - [  0.00012272640235,  0.00620904993751 ]
    - # atom 2
      - [ -0.15656109764665,  0.00619150712977 ]
      - [ -0.27131310604662,  0.00357466851052 ]
      - [  0.00012272638454,  0.00620904993787 ]
    - # atom 3
      - [  0.31701605546125,  0.01215280301490 ]
      - [  0.54824751529497, -0.02147064360295 ]
      - [  0.00020244508687,  0.01024222746497 ]
    - # atom 4
      - [  0.31628821742535, -0.02467052314854 ]
      - [  0.54866773280597, -0.00021068506307 ]
      - [  0.00020244508056,  0.01024222746509 ]
  - # 10
    frequency:   13.3700801516
    eigenvector:
    - # atom 1
      - [ -0.22925649649217,  0.00000000000000 ]
      - [  0.13235428158035, -0.00192187726739 ]
      - [  0.00016197496794, -0.00000058823805 ]
    - # atom 2
      - [  0.22925045512680, -0.00166439525696 ]
      - [ -0.13236474552720, -0.00096093852570 ]
      - [  0.00016197496976, -0.00000058773648 ]
    - # atom 3
      - [ -0.56757258572193, -0.00860383916572 ]
      - [  0.32759868008882, -0.01966003148032 ]
      - [ -0.00007049641636,  0.00000025531174 ]
    - # atom 4
      - [  0.56749516325671, -0.01272417219825 ]
      - [ -0.32773277969241, -0.01728115685947 ]
      - [ -0.00007049641211,  0.00000025648192 ]
  - # 11
    frequency:   13.3852061849
    eigenvector:
    - # atom 1
      - [ -0.13204574921022,  0.00000000000000 ]
      - [ -0.22863315153437,  0.00484099008868 ]
      - [ -0.00002849329011, -0.00179441339369 ]
    - # atom 2
      - [  0.13197917899620, -0.00419241914970 ]
      - [  0.22867158587394, -0.00242049522403 ]
      - [  0.00002849324527,  0.00179441339440 ]
    - # atom 3
      - [ -0.32804733355176, -0.01186139207669 ]
      - [ -0.56756900310763,  0.01886797005037 ]
      - [ -0.00006703531353, -0.00422166674172 ]
    - # atom 4
      - [  0.32750535047413, -0.02227083194628 ]
      - [  0.56788191729217,  0.00083828552801 ]
      - [  0.00006703533299,  0.00422166674141 ]
  - # 12
    frequency:   16.9427103807
    eigenvector:
    - # atom 1
      - [ -0.00082007567592,  0.00000000000000 ]
      - [ -0.00141505334258,  0.00010060489559 ]
      - [  0.00326808399503,  0.06134747076470 ]
    - # atom 2
      - [  0.00081543430553, -0.00008712639539 ]
      - [  0.00141773303902, -0.00005030244777 ]
      - [ -0.00326808399503, -0.06134747076470 ]
    - # atom 3
      - [  0.00251195282459, -0.00009134536724 ]
      - [  0.00434561972737, -0.00025601897420 ]
      - [ -0.03747215112807, -0.70341573206653 ]
    - # atom 4
      - [ -0.00250744066280,  0.00017604625163 ]
      - [ -0.00434822482520,  0.00020711689570 ]
      - [  0.03747215112806,  0.70341573206653 ]

- q-position: [    0.0169490,    0.0169490,    0.0000000 ]
  distance:    0.0104328
  band:
  - # 1
    frequency:    0.2341980188
    eigenvector:
    - # atom 1
      - [  0.02468747998707,  0.00000000000000 ]
      - [  0.04275973650652, -0.00011530210862 ]
      - [  0.00127829973034,  0.63207674936927 ]
    - # atom 2
      - [  0.02468727813904, -0.00009985455525 ]
      - [  0.04275985304355, -0.00005765105536 ]
      - [  0.00127829973032,  0.63207674936927 ]
    - # atom 3
      - [  0.00384589577840,  0.00069375090882 ]
      - [  0.00665801035638, -0.00041849285769 ]
      - [  0.00063303836305,  0.31301643989952 ]
    - # atom 4
      - [  0.00384305824002, -0.00070930090074 ]
      - [  0.00665964860993,  0.00039155948115 ]
      - [  0.00063303836306,  0.31301643989952 ]
  - # 2
    frequency:    0.2971112476
    eigenvector:
    - # atom 1
      - [ -0.54880483733955,  0.00000000000000 ]
      - [  0.31665514507691, -0.01581908746638 ]
      - [ -0.00026900810563,  0.00000335816567 ]
    - # atom 2
      - [ -0.54863381863653,  0.01369973161941 ]
      - [  0.31695135815936,  0.00790954373066 ]
      - [  0.00026900810720, -0.00000335808773 ]
    - # atom 3
      - [ -0.27136556482639, -0.00265495322526 ]
      - [  0.15649880889693, -0.01241956614293 ]
      - [  0.00011109765897, -0.00000138685594 ]
    - # atom 4
      - [ -0.27121472662588,  0.00942818317846 ]
      - [  0.15676006832376,  0.00850904000749 ]
      - [ -0.00011109765822,  0.00000138689244 ]
  - # 3
    frequency:    0.6593740003
    eigenvector:
    - # atom 1
      - [  0.31630856590421,  0.00000000000000 ]
      - [  0.54684997997964, -0.02717736574298 ]
      - [ -0.00178493681980, -0.04790969562679 ]
    - # atom 2
      - [  0.31543169160681, -0.02353628913083 ]
      - [  0.54735624359167, -0.01358868286726 ]
      - [ -0.00178493681958, -0.04790969562679 ]
    - # atom 3
      - [  0.15649407761958,  0.00472640405320 ]
      - [  0.27014864980458, -0.01615969840871 ]
      - [ -0.00039522589943, -0.01060830410473 ]
    - # atom 4
      - [  0.15570855463873, -0.01635791135911 ]
      - [  0.27060217170937, -0.00398666322067 ]
      - [ -0.00039522589952, -0.01060830410472 ]
  - # 4
    frequency:    3.0935814304
    eigenvector:
    - # atom 1
      - [  0.56780587596590,  0.00000000000000 ]
      - [ -0.32760765165410,  0.01679784314198 ]
      - [  0.00096291904880, -0.00001233722973 ]
    - # atom 2
      - [ -0.56761949146196,  0.01454735913868 ]
      - [  0.32793047907908,  0.00839892156559 ]
      - [  0.00096291905175, -0.00001233699952 ]
    - # atom 3
      - [ -0.22894830134545, -0.00275657419323 ]
      - [  0.13201503210712, -0.01154663743469 ]
      - [  0.00063395760345, -0.00000812244800 ]
    - # atom 4
      - [  0.22880252402893, -0.00862139442154 ]
      - [ -0.13226752582157, -0.00816058195251 ]
      - [  0.00063395760463, -0.00000812235582 ]
  - # 5
    frequency:    3.1617956103
    eigenvector:
    - # atom 1
      - [  0.32825656009087,  0.00000000000000 ]
      - [  0.56737773156485, -0.02987677619576 ]
      - [ -0.00064835128573, -0.01642529875024 ]
    - # atom 2
      - [ -0.32723524094946,  0.02587404674331 ]
      - [ -0.56796739045575,  0.01493838809819 ]
      - [  0.00064835127220,  0.01642529875077 ]
    - # atom 3