
                                 *****************
                                 * O   R   C   A *
                                 *****************

                                            #,                                       
                                            ###                                      
                                            ####                                     
                                            #####                                    
                                            ######                                   
                                           ########,                                 
                                     ,,################,,,,,                         
                               ,,#################################,,                 
                          ,,##########################################,,             
                       ,#########################################, ''#####,          
                    ,#############################################,,   '####,        
                  ,##################################################,,,,####,       
                ,###########''''           ''''###############################       
              ,#####''   ,,,,##########,,,,          '''####'''          '####       
            ,##' ,,,,###########################,,,                        '##       
           ' ,,###''''                  '''############,,,                           
         ,,##''                                '''############,,,,        ,,,,,,###''
      ,#''                                            '''#######################'''  
     '                                                          ''''####''''         
             ,#######,   #######,   ,#######,      ##                                
            ,#'     '#,  ##    ##  ,#'     '#,    #''#        ######   ,####,        
            ##       ##  ##   ,#'  ##            #'  '#       #        #'  '#        
            ##       ##  #######   ##           ,######,      #####,   #    #        
            '#,     ,#'  ##    ##  '#,     ,#' ,#      #,         ##   #,  ,#        
             '#######'   ##     ##  '#######'  #'      '#     #####' # '####'        



                  #######################################################
                  #                        -***-                        #
                  #          Department of theory and spectroscopy      #
                  #    Directorship and core code : Frank Neese         #
                  #        Max Planck Institute fuer Kohlenforschung    #
                  #                Kaiser Wilhelm Platz 1               #
                  #                 D-45470 Muelheim/Ruhr               #
                  #                      Germany                        #
                  #                                                     #
                  #                  All rights reserved                #
                  #                        -***-                        #
                  #######################################################


                         Program Version 5.0.1 -  RELEASE  -


 With contributions from (in alphabetic order):
   Daniel Aravena         : Magnetic Suceptibility
   Michael Atanasov       : Ab Initio Ligand Field Theory (pilot matlab implementation)
   Alexander A. Auer      : GIAO ZORA, VPT2 properties, NMR spectrum
   Ute Becker             : Parallelization
   Giovanni Bistoni       : ED, misc. LED, open-shell LED, HFLD
   Martin Brehm           : Molecular dynamics
   Dmytro Bykov           : SCF Hessian
   Vijay G. Chilkuri      : MRCI spin determinant printing, contributions to CSF-ICE
   Dipayan Datta          : RHF DLPNO-CCSD density
   Achintya Kumar Dutta   : EOM-CC, STEOM-CC
   Dmitry Ganyushin       : Spin-Orbit,Spin-Spin,Magnetic field MRCI
   Miquel Garcia          : C-PCM and meta-GGA Hessian, CC/C-PCM, Gaussian charge scheme
   Yang Guo               : DLPNO-NEVPT2, F12-NEVPT2, CIM, IAO-localization
   Andreas Hansen         : Spin unrestricted coupled pair/coupled cluster methods
   Benjamin Helmich-Paris : MC-RPA, TRAH-SCF, COSX integrals
   Lee Huntington         : MR-EOM, pCC
   Robert Izsak           : Overlap fitted RIJCOSX, COSX-SCS-MP3, EOM
   Marcus Kettner         : VPT2
   Christian Kollmar      : KDIIS, OOCD, Brueckner-CCSD(T), CCSD density, CASPT2, CASPT2-K
   Simone Kossmann        : Meta GGA functionals, TD-DFT gradient, OOMP2, MP2 Hessian
   Martin Krupicka        : Initial AUTO-CI
   Lucas Lang             : DCDCAS
   Marvin Lechner         : AUTO-CI (C++ implementation), FIC-MRCC
   Dagmar Lenk            : GEPOL surface, SMD
   Dimitrios Liakos       : Extrapolation schemes; Compound Job, initial MDCI parallelization
   Dimitrios Manganas     : Further ROCIS development; embedding schemes
   Dimitrios Pantazis     : SARC Basis sets
   Anastasios Papadopoulos: AUTO-CI, single reference methods and gradients
   Taras Petrenko         : DFT Hessian,TD-DFT gradient, ASA, ECA, R-Raman, ABS, FL, XAS/XES, NRVS
   Peter Pinski           : DLPNO-MP2, DLPNO-MP2 Gradient
   Christoph Reimann      : Effective Core Potentials
   Marius Retegan         : Local ZFS, SOC
   Christoph Riplinger    : Optimizer, TS searches, QM/MM, DLPNO-CCSD(T), (RO)-DLPNO pert. Triples
   Tobias Risthaus        : Range-separated hybrids, TD-DFT gradient, RPA, STAB
   Michael Roemelt        : Original ROCIS implementation
   Masaaki Saitow         : Open-shell DLPNO-CCSD energy and density
   Barbara Sandhoefer     : DKH picture change effects
   Avijit Sen             : IP-ROCIS
   Kantharuban Sivalingam : CASSCF convergence, NEVPT2, FIC-MRCI
   Bernardo de Souza      : ESD, SOC TD-DFT
   Georgi Stoychev        : AutoAux, RI-MP2 NMR, DLPNO-MP2 response
   Willem Van den Heuvel  : Paramagnetic NMR
   Boris Wezisla          : Elementary symmetry handling
   Frank Wennmohs         : Technical directorship


 We gratefully acknowledge several colleagues who have allowed us to
 interface, adapt or use parts of their codes:
   Stefan Grimme, W. Hujo, H. Kruse, P. Pracht,  : VdW corrections, initial TS optimization,
                  C. Bannwarth, S. Ehlert          DFT functionals, gCP, sTDA/sTD-DF
   Ed Valeev, F. Pavosevic, A. Kumar             : LibInt (2-el integral package), F12 methods
   Garnet Chan, S. Sharma, J. Yang, R. Olivares  : DMRG
   Ulf Ekstrom                                   : XCFun DFT Library
   Mihaly Kallay                                 : mrcc  (arbitrary order and MRCC methods)
   Jiri Pittner, Ondrej Demel                    : Mk-CCSD
   Frank Weinhold                                : gennbo (NPA and NBO analysis)
   Christopher J. Cramer and Donald G. Truhlar   : smd solvation model
   Lars Goerigk                                  : TD-DFT with DH, B97 family of functionals
   V. Asgeirsson, H. Jonsson                     : NEB implementation
   FAccTs GmbH                                   : IRC, NEB, NEB-TS, DLPNO-Multilevel, CI-OPT
                                                   MM, QMMM, 2- and 3-layer-ONIOM, Crystal-QMMM,
                                                   LR-CPCM, SF, NACMEs, symmetry and pop. for TD-DFT,
                                                   nearIR, NL-DFT gradient (VV10), updates on ESD,
                                                   ML-optimized integration grids
   S Lehtola, MJT Oliveira, MAL Marques          : LibXC Library
   Liviu Ungur et al                             : ANISO software


 Your calculation uses the libint2 library for the computation of 2-el integrals
 For citations please refer to: http://libint.valeyev.net

 Your ORCA version has been built with support for libXC version: 5.1.0
 For citations please refer to: https://tddft.org/programs/libxc/

 This ORCA versions uses:
   CBLAS   interface :  Fast vector & matrix operations
   LAPACKE interface :  Fast linear algebra routines
   SCALAPACK package :  Parallel linear algebra routines
   Shared memory     :  Shared parallel matrices
   BLAS/LAPACK       :  OpenBLAS 0.3.15  USE64BITINT DYNAMIC_ARCH NO_AFFINITY SkylakeX SINGLE_THREADED
        Core in use  :  SkylakeX
   Copyright (c) 2011-2014, The OpenBLAS Project


================================================================================

----- Orbital basis set information -----
Your calculation utilizes the basis: def2-TZVP
   F. Weigend and R. Ahlrichs, Phys. Chem. Chem. Phys. 7, 3297 (2005).

----- AuxJ basis set information -----
Your calculation utilizes the auxiliary basis: def2/J
   F. Weigend, Phys. Chem. Chem. Phys. 8, 1057 (2006).

================================================================================
                                        WARNINGS
                       Please study these warnings very carefully!
================================================================================

WARNING: Old DensityContainer found on disk!
         Will remove this file - 
         If you want to keep old densities, please start your calculation with a different basename. 


WARNING: your system is open-shell and RHF/RKS was chosen
  ===> : WILL SWITCH to UHF/UKS


INFO   : the flag for use of the SHARK integral package has been found!

================================================================================
                                       INPUT FILE
================================================================================
NAME = zfs.in
|  1> 
|  2> # Use EPR-II is a special basis set for epr, autoaux creates a large auxiliary basis set
|  3> !PBE0 def2-TZVP EXTREMESCF #MORead #EPR-II AUTOAUX RIJCOSX
|  4> 
|  5> #%moinp "zfs.gbw" 
|  6> 
|  7> # geometry
|  8> * xyz +1 3
|  9>     H          8.120597772       6.781085518      13.779036435 Z=1.5
| 10>     H          8.123361192      13.857849920      11.181623613 Z=1.5
| 11>     H          9.565996307      11.359372579      11.181519534 Z=1.5
| 12>     H          9.744408434       9.378649058      18.676191657 Z=1.5
| 13>     H         11.162673563       8.559813343      16.386175093 Z=1.5
| 14>     H          4.870882242      13.858111780      11.181503395 Z=1.5
| 15>     H          3.428316625      11.359515095      11.181503428 Z=1.5
| 16>     H          6.496916975      15.002322960      18.675810450 Z=1.5
| 17>     H          7.939845278       8.542796793      11.181519535 Z=1.5
| 18>     H          3.250417766       9.379222209      18.675810450 Z=1.5
| 19>     H          1.833003775       8.560629650      16.386162834 Z=1.5
| 20>     H          9.558179590      14.895106228      13.779181662 Z=1.5
| 21>     H         11.182059330      12.083691896      13.779036447 Z=1.5
| 22>     H          3.435204416      14.895409708      13.779010828 Z=1.5
| 23>     H          4.873901433       6.781699456      13.779181649 Z=1.5
| 24>     H          5.054782761       8.542916835      11.181623647 Z=1.5
| 25>     H          6.497132115      16.639135742      16.386162774 Z=1.5
| 26>     H          6.497227624      11.253409681      21.286537014 Z=1.5
| 27>     H          1.812151198      12.084199494      13.779010826 Z=1.5
| 28>     H          2.417354595      11.755049435      16.643945239 Z=0.5
| 29>     H          8.112304185      13.178324081      19.218488749 Z=0.5
| 30>     H          8.972167883      11.689304706      19.218652456 Z=0.5
| 31>     H          9.746876277       9.377224248      12.651460307 Z=0.5
| 32>     H         10.607463831       8.880363816      14.036927056 Z=0.5
| 33>     H          4.881691609      13.178904693      19.218782369 Z=0.5
| 34>     H          4.021931934      11.689757404      19.218782346 Z=0.5
| 35>     H          7.357201453       8.892101204      19.218652456 Z=0.5
| 36>     H          5.637740926       8.892255356      19.218488727 Z=0.5
| 37>     H          2.387798221       8.881039242      14.036919273 Z=0.5
| 38>     H          8.969891590      14.535344635      16.643720274 Z=0.5
| 39>     H         10.577041148      11.753869463      16.643979621 Z=0.5
| 40>     H          4.022858434      14.535863251      16.643945240 Z=0.5
| 41>     H          6.497147955      11.253455677      10.093786611 Z=0.5
| 42>     H          8.103723326       7.469957841      16.643979629 Z=0.5
| 43>     H          3.247983768       9.377787527      12.651688959 Z=0.5
| 44>     H          4.891320152       7.471052601      16.643720282 Z=0.5
| 45>     H          6.497046420      15.998464872      14.036919309 Z=0.5
| 46>     H          6.496942447      15.005148205      12.651688959 Z=0.5
| 47>     O           8.092752175       8.474450202      16.315157899
| 48>     O           6.497126966      11.253467796      11.150786611
| 49>     O           4.886871650      14.023478182      16.315020167
| 50>     O           9.701639640      11.261124626      16.315157899
| 51>     O           8.105872321      14.022815036      16.315036364
| 52>     O           3.257805165       9.383594064      13.708627379
| 53>     O           3.293099710      11.262984612      16.315020167
| 54>     O           4.903174229       8.475580034      16.315036364
| 55>     O           4.934250242      12.155795049      13.746835465
| 56>     O           4.891219424      12.180638902      18.871473239
| 57>     O           9.737411462       9.382688761      13.708403805
| 58>     O           8.059085842      12.154030927      13.747058056
| 59>     O           8.102760082      12.179992138      18.871370266
| 60>     O           6.496824536      14.993739358      13.708627379
| 61>     O           6.497549749       9.399686693      18.871370266
| 62>     O           6.498195702       9.450490296      13.747058056
| 63>     V           6.497278423      11.253380352      14.275008821
| 64>     Zn          8.000236045      12.120142143      16.892539163
| 65>     Zn          8.138786051      12.201003894      11.682606966
| 66>     Zn          9.743907875       9.378938056      16.945191753
| 67>     Zn          4.994270422      12.121142384      16.892779301
| 68>     Zn          4.855503395      12.201259560      11.682467677
| 69>     Zn          6.498119357       9.518400102      16.892539163
| 70>     Zn          6.497366016       9.357981414      11.682606966
| 71>     Zn          3.251669403       9.380178843      16.944811167
| 72>     Zn          8.126724802      14.107217667      14.350609528
| 73>     Zn          9.784722909      11.236959237      14.350749428
| 74>     Zn          4.866942378      14.108144913      14.350588952
| 75>     Zn          6.496976068      11.253554917      19.555537038
| 76>     Zn          8.155221649       8.414580679      14.350749428
| 77>     Zn          3.209811526      11.237910504      14.350588952
| 78>     Zn          6.496714323      15.000760694      16.944811167
| 79>     Zn          4.840505638       8.415319944      14.350609528
| 80> *
| 81> 
| 82> 
| 83> # Parallelization
| 84> %PAL NPROCS 64 END
| 85> 
| 86> # ZFS calculation
| 87> %EPRNMR DTENSOR SSANDSO
| 88>     DSS     direct
| 89>     DSOC    cvw
| 90>     PrintLevel 4
| 91> END
| 92> 
| 93> 
| 94> #%basis
| 95> #newgto Mo "SARC-DKH-TZVP" end
| 96> #end
| 97> 
| 98>                          ****END OF INPUT****
================================================================================

                       ****************************
                       * Single Point Calculation *
                       ****************************

---------------------------------
CARTESIAN COORDINATES (ANGSTROEM)
---------------------------------
  H      8.120598    6.781086   13.779036
  H      8.123361   13.857850   11.181624
  H      9.565996   11.359373   11.181520
  H      9.744408    9.378649   18.676192
  H     11.162674    8.559813   16.386175
  H      4.870882   13.858112   11.181503
  H      3.428317   11.359515   11.181503
  H      6.496917   15.002323   18.675810
  H      7.939845    8.542797   11.181520
  H      3.250418    9.379222   18.675810
  H      1.833004    8.560630   16.386163
  H      9.558180   14.895106   13.779182
  H     11.182059   12.083692   13.779036
  H      3.435204   14.895410   13.779011
  H      4.873901    6.781699   13.779182
  H      5.054783    8.542917   11.181624
  H      6.497132   16.639136   16.386163
  H      6.497228   11.253410   21.286537
  H      1.812151   12.084199   13.779011
  H      2.417355   11.755049   16.643945
  H      8.112304   13.178324   19.218489
  H      8.972168   11.689305   19.218652
  H      9.746876    9.377224   12.651460
  H     10.607464    8.880364   14.036927
  H      4.881692   13.178905   19.218782
  H      4.021932   11.689757   19.218782
  H      7.357201    8.892101   19.218652
  H      5.637741    8.892255   19.218489
  H      2.387798    8.881039   14.036919
  H      8.969892   14.535345   16.643720
  H     10.577041   11.753869   16.643980
  H      4.022858   14.535863   16.643945
  H      6.497148   11.253456   10.093787
  H      8.103723    7.469958   16.643980
  H      3.247984    9.377788   12.651689
  H      4.891320    7.471053   16.643720
  H      6.497046   15.998465   14.036919
  H      6.496942   15.005148   12.651689
  O      8.092752    8.474450   16.315158
  O      6.497127   11.253468   11.150787
  O      4.886872   14.023478   16.315020
  O      9.701640   11.261125   16.315158
  O      8.105872   14.022815   16.315036
  O      3.257805    9.383594   13.708627
  O      3.293100   11.262985   16.315020
  O      4.903174    8.475580   16.315036
  O      4.934250   12.155795   13.746835
  O      4.891219   12.180639   18.871473
  O      9.737411    9.382689   13.708404
  O      8.059086   12.154031   13.747058
  O      8.102760   12.179992   18.871370
  O      6.496825   14.993739   13.708627
  O      6.497550    9.399687   18.871370
  O      6.498196    9.450490   13.747058
  V      6.497278   11.253380   14.275009
  Zn     8.000236   12.120142   16.892539
  Zn     8.138786   12.201004   11.682607
  Zn     9.743908    9.378938   16.945192
  Zn     4.994270   12.121142   16.892779
  Zn     4.855503   12.201260   11.682468
  Zn     6.498119    9.518400   16.892539
  Zn     6.497366    9.357981   11.682607
  Zn     3.251669    9.380179   16.944811
  Zn     8.126725   14.107218   14.350610
  Zn     9.784723   11.236959   14.350749
  Zn     4.866942   14.108145   14.350589
  Zn     6.496976   11.253555   19.555537
  Zn     8.155222    8.414581   14.350749
  Zn     3.209812   11.237911   14.350589
  Zn     6.496714   15.000761   16.944811
  Zn     4.840506    8.415320   14.350610

----------------------------
CARTESIAN COORDINATES (A.U.)
----------------------------
  NO LB      ZA    FRAG     MASS         X           Y           Z
   0 H     1.5000    0     1.008   15.345706   12.814395   26.038605
   1 H     1.5000    0     1.008   15.350928   26.187541   21.130206
   2 H     1.5000    0     1.008   18.077113   21.466103   21.130010
   3 H     1.5000    0     1.008   18.414263   17.723078   35.292887
   4 H     1.5000    0     1.008   21.094396   16.175703   30.965383
   5 H     1.5000    0     1.008    9.204633   26.188036   21.129979
   6 H     1.5000    0     1.008    6.478580   21.466373   21.129979
   7 H     1.5000    0     1.008   12.277394   28.350282   35.292167
   8 H     1.5000    0     1.008   15.004133   16.143546   21.130010
   9 H     1.5000    0     1.008    6.142399   17.724161   35.292167
  10 H     1.5000    0     1.008    3.463875   16.177246   30.965360
  11 H     1.5000    0     1.008   18.062342   28.147672   26.038880
  12 H     1.5000    0     1.008   21.131030   22.834868   26.038605
  13 H     1.5000    0     1.008    6.491596   28.148245   26.038557
  14 H     1.5000    0     1.008    9.210339   12.815555   26.038880
  15 H     1.5000    0     1.008    9.552155   16.143773   21.130206
  16 H     1.5000    0     1.008   12.277800   31.443410   30.965360
  17 H     1.5000    0     1.008   12.277981   21.265862   40.225725
  18 H     1.5000    0     1.008    3.424469   22.835828   26.038557
  19 H     0.5000    0     1.008    4.568138   22.213824   31.452498
  20 H     0.5000    0     1.008   15.330033   24.903423   36.317680
  21 H     0.5000    0     1.008   16.954940   22.089585   36.317990
  22 H     0.5000    0     1.008   18.418927   17.720386   23.907795
  23 H     0.5000    0     1.008   20.045202   16.781456   26.525948
  24 H     0.5000    0     1.008    9.225060   24.904521   36.318235
  25 H     0.5000    0     1.008    7.600350   22.090440   36.318235
  26 H     0.5000    0     1.008   13.903096   16.803636   36.317990
  27 H     0.5000    0     1.008   10.653786   16.803927   36.317680
  28 H     0.5000    0     1.008    4.512285   16.782732   26.525933
  29 H     0.5000    0     1.008   16.950639   27.467821   31.452073
  30 H     0.5000    0     1.008   19.987711   22.211594   31.452563
  31 H     0.5000    0     1.008    7.602101   27.468801   31.452498
  32 H     0.5000    0     1.008   12.277830   21.265949   19.074492
  33 H     0.5000    0     1.008   15.313818   14.116175   31.452563
  34 H     0.5000    0     1.008    6.137800   17.721450   23.908227
  35 H     0.5000    0     1.008    9.243256   14.118243   31.452073
  36 H     0.5000    0     1.008   12.277638   30.232717   26.525933
  37 H     0.5000    0     1.008   12.277442   28.355621   23.908227
  38 O     8.0000    0    15.999   15.293085   16.014390   30.831180
  39 O     8.0000    0    15.999   12.277791   21.265972   21.071933
  40 O     8.0000    0    15.999    9.234849   26.500533   30.830920
  41 O     8.0000    0    15.999   18.333442   21.280442   30.831180
  42 O     8.0000    0    15.999   15.317879   26.499280   30.830951
  43 O     8.0000    0    15.999    6.156360   17.732423   25.905551
  44 O     8.0000    0    15.999    6.223057   21.283956   30.830920
  45 O     8.0000    0    15.999    9.265656   16.016525   30.830951
  46 O     8.0000    0    15.999    9.324382   22.971124   25.977754
  47 O     8.0000    0    15.999    9.243065   23.018072   35.661916
  48 O     8.0000    0    15.999   18.401041   17.730712   25.905129
  49 O     8.0000    0    15.999   15.229465   22.967790   25.978175
  50 O     8.0000    0    15.999   15.311997   23.016849   35.661722
  51 O     8.0000    0    15.999   12.277219   28.334061   25.905551
  52 O     8.0000    0    15.999   12.278590   17.762834   35.661722
  53 O     8.0000    0    15.999   12.279810   17.858838   25.978175
  54 V    23.0000    0    50.940   12.278077   21.265807   26.975857
  55 Zn   30.0000    0    65.380   15.118255   22.903749   31.922273
  56 Zn   30.0000    0    65.380   15.380077   23.056556   22.076928
  57 Zn   30.0000    0    65.380   18.413317   17.723624   32.021772
  58 Zn   30.0000    0    65.380    9.437803   22.905640   31.922727
  59 Zn   30.0000    0    65.380    9.175572   23.057039   22.076664
  60 Zn   30.0000    0    65.380   12.279666   17.987169   31.922273
  61 Zn   30.0000    0    65.380   12.278242   17.684022   22.076928
  62 Zn   30.0000    0    65.380    6.144765   17.725969   32.021052
  63 Zn   30.0000    0    65.380   15.357284   26.658778   27.118722
  64 Zn   30.0000    0    65.380   18.490447   21.234776   27.118986
  65 Zn   30.0000    0    65.380    9.197188   26.660530   27.118683
  66 Zn   30.0000    0    65.380   12.277505   21.266137   36.954609
  67 Zn   30.0000    0    65.380   15.411135   15.901253   27.118986
  68 Zn   30.0000    0    65.380    6.065665   21.236573   27.118683
  69 Zn   30.0000    0    65.380   12.277011   28.347330   32.021052
  70 Zn   30.0000    0    65.380    9.147230   15.902650   27.118722

--------------------------------
INTERNAL COORDINATES (ANGSTROEM)
--------------------------------
 H      0   0   0     0.000000000000     0.00000000     0.00000000
 H      1   0   0     7.538378831406     0.00000000     0.00000000
 H      2   1   0     2.885062409958    35.63166955     0.00000000
 H      1   2   3     5.776350636754    82.52226317   104.34605863
 H      4   1   2     2.815340790684    47.25180351   277.55667262
 H      2   1   3     3.252478962763    89.98405666   149.18572593
 H      6   2   1     2.885131011522   119.99538959   339.84637188
 H      4   1   2     6.493990227713   104.40619034    35.64353856
 H      1   2   3     3.143786272369    35.83265317   295.14843602
 H      8   4   1     6.492997702905    60.00506055    61.08238269
 H     10   8   4     2.814541242367   120.24378737   250.33144384
 H      2   1   3     3.143550906483    91.44468744   266.35201085
 H      3   2   1     3.143786296905    93.29567615   272.11700088
 H      6   2   1     3.143915182697   117.17107591    91.61152634
 H      1   2   3     3.246696400294    90.01171551   210.80773660
 H      9   1   2     2.885062521376    93.29567462   265.39258808
 H      8   4   1     2.814541278755   120.24018239   311.40794966
 H      8   4   1     4.568396224272    44.70742318   115.40439380
 H      7   6   2     3.143915210092    93.29107906   124.14800764
 H     19   7   6     2.946601449784   132.21937797   273.45311587
 H      8   4   1     2.496186588585    16.97779300   192.98225123
 H     21   8   4     1.719460469177   163.02381641     0.00000000
 H      3   2   1     2.474339395831   136.90927891   335.84607512
 H     23   3   2     1.704992474931   138.85844266   275.77554008
 H      8   4   1     2.495721471683    71.99706819    74.30734406
 H     25   8   4     1.719519219751   163.00541297   317.32089742
 H      4   1   2     2.495946654642    80.08017196   103.97196608
 H     27   4   1     1.719460541705   163.01775577   293.86362910
 H     11  10   8     2.435036856571   129.18556080    35.35529165
 H     12   2   1     2.946369398833   132.21700407   309.06969671
 H     13   3   2     2.946647116319   132.22107541    86.55680957
 H     14   6   2     2.946601446527   132.21937997   320.22033730
 H     16   9   1     3.257426527759    63.71922983   146.01206374
 H      1   2   3     2.946647133467    96.63481478   121.14175982
 H     29  11  10     1.704564770474   159.61096067     0.00000000
 H     15   1   2     2.946369418495    89.66629606   263.37618712
 H     17   8   4     2.435036761294   129.18556150    35.37861791
 H     37  17   8     1.704564793228   159.61096205     0.00000000
 O     34   1   2     1.056999999802    85.39787013     0.60603909
 O     33  16   9     1.057000000278    70.49098194   280.07224078
 O     32  14   6     1.057000000002    85.38897259     4.09111084
 O     31  13   3     1.056999999744    85.39787087     4.12850801
 O     30  12   2     1.056999999880    85.41693209   355.90738280
 O     35  29  11     1.056999999708    36.26187535     0.00000000
 O     20  19   7     1.056999999750    85.38897282   355.90888698
 O     36  15   1     1.057000000351    85.41693149    89.33813076
 O      7   6   2     3.079419796652    62.06603271    70.54509933
 O     25   8   4     1.057000000246   127.78494730   327.36875752
 O     23   3   2     1.057000000752   126.10353624   322.73999737
 O      3   2   1     3.079650783358    62.08485382   325.74615324
 O     21   8   4     1.056999999790   127.80079307   349.93826864
 O     37  17   8     1.056999999536   123.34908805     0.00000000
 O     28  27   4     1.056999999927    35.57366095   346.26748128
 O      9   1   2     3.079650775348    60.24929769   320.42973619
 V     54   9   1     1.878601981711   121.14512253   139.17493312
 Zn    51  21   8     1.982388895818   110.90333787    52.71957113
 Zn     3   2   1     1.730999999922    33.55544117     4.68514617
 Zn     5   4   1     1.730999999726    35.58902572    46.19763488
 Zn    48  25   8     1.982268660934   110.90396695   307.30960721
 Zn     7   6   2     1.730999999884    33.55338708    31.57239087
 Zn    53  28  27     1.982388895280   110.90333648   122.25227725
 Zn     9   1   2     1.731000000324    94.16531136   299.01042427
 Zn    10   8   4     1.730999999853    89.95186333   270.01616286
 Zn    12   2   1     1.731000000198    75.23486592   303.59754113
 Zn    13   3   2     1.731000000553    75.23979204    92.05378267
 Zn    14   6   2     1.731000000322    75.22941693   325.71100459
 Zn    18   8   4     1.731000000371    55.14201064   314.69371674
 Zn     1   2   3     1.731000000068    39.45784982   119.03576330
 Zn    19   7   6     1.731000000341    75.22941534   267.96244666
 Zn    17   8   4     1.730999999844    35.61175581    35.39008072
 Zn    15   1   2     1.730999999664    91.11653616   320.56568374

---------------------------
INTERNAL COORDINATES (A.U.)
---------------------------
 H      0   0   0     0.000000000000     0.00000000     0.00000000
 H      1   0   0    14.245471485107     0.00000000     0.00000000
 H      2   1   0     5.451977834092    35.63166955     0.00000000
 H      1   2   3    10.915720756966    82.52226317   104.34605863
 H      4   1   2     5.320223068051    47.25180351   277.55667262
 H      2   1   3     6.146294495962    89.98405666   149.18572593
 H      6   2   1     5.452107472259   119.99538959   339.84637188
 H      4   1   2    12.271863046739   104.40619034    35.64353856
 H      1   2   3     5.940895078358    35.83265317   295.14843602
 H      8   4   1    12.269987446671    60.00506055    61.08238269
 H     10   8   4     5.318712140701   120.24378737   250.33144384
 H      2   1   3     5.940450301293    91.44468744   266.35201085
 H      3   2   1     5.940895124725    93.29567615   272.11700088
 H      6   2   1     5.941138683574   117.17107591    91.61152634
 H      1   2   3     6.135367036544    90.01171551   210.80773660
 H      9   1   2     5.451978044641    93.29567462   265.39258808
 H      8   4   1     5.318712209464   120.24018239   311.40794966
 H      8   4   1     8.633017735114    44.70742318   115.40439380
 H      7   6   2     5.941138735344    93.29107906   124.14800764
 H     19   7   6     5.568269765908   132.21937797   273.45311587
 H      8   4   1     4.717109031592    16.97779300   192.98225123
 H     21   8   4     3.249309384849   163.02381641     0.00000000
 H      3   2   1     4.675823820493   136.90927891   335.84607512
 H     23   3   2     3.221968838016   138.85844266   275.77554008
 H      8   4   1     4.716230088029    71.99706819    74.30734406
 H     25   8   4     3.249420407343   163.00541297   317.32089742
 H      4   1   2     4.716655622150    80.08017196   103.97196608
 H     27   4   1     3.249309521907   163.01775577   293.86362910
 H     11  10   8     4.601552784923   129.18556080    35.35529165
 H     12   2   1     5.567831253161   132.21700407   309.06969671
 H     13   3   2     5.568356063151   132.22107541    86.55680957
 H     14   6   2     5.568269759752   132.21937997   320.22033730
 H     16   9   1     6.155644038834    63.71922983   146.01206374
 H      1   2   3     5.568356095557    96.63481478   121.14175982
 H     29  11  10     3.221160593727   159.61096067     0.00000000
 H     15   1   2     5.567831290316    89.66629606   263.37618712
 H     17   8   4     4.601552604877   129.18556150    35.37861791
 H     37  17   8     3.221160636725   159.61096205     0.00000000
 O     34   1   2     1.997440523181    85.39787013     0.60603909
 O     33  16   9     1.997440524080    70.49098194   280.07224078
 O     32  14   6     1.997440523559    85.38897259     4.09111084
 O     31  13   3     1.997440523070    85.39787087     4.12850801
 O     30  12   2     1.997440523329    85.41693209   355.90738280
 O     35  29  11     1.997440523003    36.26187535     0.00000000
 O     20  19   7     1.997440523082    85.38897282   355.90888698
 O     36  15   1     1.997440524219    85.41693149    89.33813076
 O      7   6   2     5.819260067048    62.06603271    70.54509933
 O     25   8   4     1.997440524020   127.78494730   327.36875752
 O     23   3   2     1.997440524976   126.10353624   322.73999737
 O      3   2   1     5.819696568663    62.08485382   325.74615324
 O     21   8   4     1.997440523158   127.80079307   349.93826864
 O     37  17   8     1.997440522677   123.34908805     0.00000000
 O     28  27   4     1.997440523416    35.57366095   346.26748128
 O      9   1   2     5.819696553527    60.24929769   320.42973619
 V     54   9   1     3.550043260076   121.14512253   139.17493312
 Zn    51  21   8     3.746172104024   110.90333787    52.71957113
 Zn     3   2   1     3.271115937670    33.55544117     4.68514617
 Zn     5   4   1     3.271115937300    35.58902572    46.19763488
 Zn    48  25   8     3.745944893020   110.90396695   307.30960721
 Zn     7   6   2     3.271115937598    33.55338708    31.57239087
 Zn    53  28  27     3.746172103006   110.90333648   122.25227725
 Zn     9   1   2     3.271115938430    94.16531136   299.01042427
 Zn    10   8   4     3.271115937539    89.95186333   270.01616286
 Zn    12   2   1     3.271115938191    75.23486592   303.59754113
 Zn    13   3   2     3.271115938863    75.23979204    92.05378267
 Zn    14   6   2     3.271115938426    75.22941693   325.71100459
 Zn    18   8   4     3.271115938520    55.14201064   314.69371674
 Zn     1   2   3     3.271115937945    39.45784982   119.03576330
 Zn    19   7   6     3.271115938463    75.22941534   267.96244666
 Zn    17   8   4     3.271115937523    35.61175581    35.39008072
 Zn    15   1   2     3.271115937182    91.11653616   320.56568374

---------------------
BASIS SET INFORMATION
---------------------
There are 4 groups of distinct atoms

 Group   1 Type H   : 5s1p contracted to 3s1p pattern {311/1}
 Group   2 Type O   : 11s6p2d1f contracted to 5s3p2d1f pattern {62111/411/11/1}
 Group   3 Type V   : 17s11p7d1f contracted to 6s4p4d1f pattern {842111/6311/4111/1}
 Group   4 Type Zn  : 17s12p7d1f contracted to 6s5p4d1f pattern {842111/63111/4111/1}

Atom   0H    basis set group =>   1
Atom   1H    basis set group =>   1
Atom   2H    basis set group =>   1
Atom   3H    basis set group =>   1
Atom   4H    basis set group =>   1
Atom   5H    basis set group =>   1
Atom   6H    basis set group =>   1
Atom   7H    basis set group =>   1
Atom   8H    basis set group =>   1
Atom   9H    basis set group =>   1
Atom  10H    basis set group =>   1
Atom  11H    basis set group =>   1
Atom  12H    basis set group =>   1
Atom  13H    basis set group =>   1
Atom  14H    basis set group =>   1
Atom  15H    basis set group =>   1
Atom  16H    basis set group =>   1
Atom  17H    basis set group =>   1
Atom  18H    basis set group =>   1
Atom  19H    basis set group =>   1
Atom  20H    basis set group =>   1
Atom  21H    basis set group =>   1
Atom  22H    basis set group =>   1
Atom  23H    basis set group =>   1
Atom  24H    basis set group =>   1
Atom  25H    basis set group =>   1
Atom  26H    basis set group =>   1
Atom  27H    basis set group =>   1
Atom  28H    basis set group =>   1
Atom  29H    basis set group =>   1
Atom  30H    basis set group =>   1
Atom  31H    basis set group =>   1
Atom  32H    basis set group =>   1
Atom  33H    basis set group =>   1
Atom  34H    basis set group =>   1
Atom  35H    basis set group =>   1
Atom  36H    basis set group =>   1
Atom  37H    basis set group =>   1
Atom  38O    basis set group =>   2
Atom  39O    basis set group =>   2
Atom  40O    basis set group =>   2
Atom  41O    basis set group =>   2
Atom  42O    basis set group =>   2
Atom  43O    basis set group =>   2
Atom  44O    basis set group =>   2
Atom  45O    basis set group =>   2
Atom  46O    basis set group =>   2
Atom  47O    basis set group =>   2
Atom  48O    basis set group =>   2
Atom  49O    basis set group =>   2
Atom  50O    basis set group =>   2
Atom  51O    basis set group =>   2
Atom  52O    basis set group =>   2
Atom  53O    basis set group =>   2
Atom  54V    basis set group =>   3
Atom  55Zn   basis set group =>   4
Atom  56Zn   basis set group =>   4
Atom  57Zn   basis set group =>   4
Atom  58Zn   basis set group =>   4
Atom  59Zn   basis set group =>   4
Atom  60Zn   basis set group =>   4
Atom  61Zn   basis set group =>   4
Atom  62Zn   basis set group =>   4
Atom  63Zn   basis set group =>   4
Atom  64Zn   basis set group =>   4
Atom  65Zn   basis set group =>   4
Atom  66Zn   basis set group =>   4
Atom  67Zn   basis set group =>   4
Atom  68Zn   basis set group =>   4
Atom  69Zn   basis set group =>   4
Atom  70Zn   basis set group =>   4
---------------------------------
AUXILIARY/J BASIS SET INFORMATION
---------------------------------
There are 4 groups of distinct atoms

 Group   1 Type H   : 5s2p1d contracted to 3s1p1d pattern {311/2/1}
 Group   2 Type O   : 12s5p4d2f1g contracted to 6s4p3d1f1g pattern {711111/2111/211/2/1}
 Group   3 Type V   : 19s5p5d3f3g contracted to 8s5p5d2f3g pattern {121111111/11111/11111/21/111}
 Group   4 Type Zn  : 19s5p5d3f3g contracted to 8s5p5d2f3g pattern {121111111/11111/11111/21/111}

Atom   0H    basis set group =>   1
Atom   1H    basis set group =>   1
Atom   2H    basis set group =>   1
Atom   3H    basis set group =>   1
Atom   4H    basis set group =>   1
Atom   5H    basis set group =>   1
Atom   6H    basis set group =>   1
Atom   7H    basis set group =>   1
Atom   8H    basis set group =>   1
Atom   9H    basis set group =>   1
Atom  10H    basis set group =>   1
Atom  11H    basis set group =>   1
Atom  12H    basis set group =>   1
Atom  13H    basis set group =>   1
Atom  14H    basis set group =>   1
Atom  15H    basis set group =>   1
Atom  16H    basis set group =>   1
Atom  17H    basis set group =>   1
Atom  18H    basis set group =>   1
Atom  19H    basis set group =>   1
Atom  20H    basis set group =>   1
Atom  21H    basis set group =>   1
Atom  22H    basis set group =>   1
Atom  23H    basis set group =>   1
Atom  24H    basis set group =>   1
Atom  25H    basis set group =>   1
Atom  26H    basis set group =>   1
Atom  27H    basis set group =>   1
Atom  28H    basis set group =>   1
Atom  29H    basis set group =>   1
Atom  30H    basis set group =>   1
Atom  31H    basis set group =>   1
Atom  32H    basis set group =>   1
Atom  33H    basis set group =>   1
Atom  34H    basis set group =>   1
Atom  35H    basis set group =>   1
Atom  36H    basis set group =>   1
Atom  37H    basis set group =>   1
Atom  38O    basis set group =>   2
Atom  39O    basis set group =>   2
Atom  40O    basis set group =>   2
Atom  41O    basis set group =>   2
Atom  42O    basis set group =>   2
Atom  43O    basis set group =>   2
Atom  44O    basis set group =>   2
Atom  45O    basis set group =>   2
Atom  46O    basis set group =>   2
Atom  47O    basis set group =>   2
Atom  48O    basis set group =>   2
Atom  49O    basis set group =>   2
Atom  50O    basis set group =>   2
Atom  51O    basis set group =>   2
Atom  52O    basis set group =>   2
Atom  53O    basis set group =>   2
Atom  54V    basis set group =>   3
Atom  55Zn   basis set group =>   4
Atom  56Zn   basis set group =>   4
Atom  57Zn   basis set group =>   4
Atom  58Zn   basis set group =>   4
Atom  59Zn   basis set group =>   4
Atom  60Zn   basis set group =>   4
Atom  61Zn   basis set group =>   4
Atom  62Zn   basis set group =>   4
Atom  63Zn   basis set group =>   4
Atom  64Zn   basis set group =>   4
Atom  65Zn   basis set group =>   4
Atom  66Zn   basis set group =>   4
Atom  67Zn   basis set group =>   4
Atom  68Zn   basis set group =>   4
Atom  69Zn   basis set group =>   4
Atom  70Zn   basis set group =>   4

Checking for AutoStart:
The File: zfs.gbw exists
Trying to determine its content:
     ... Fine, the file contains calculation information
     ... Fine, the calculation information was read
     ... Fine, the file contains a basis set
     ... Fine, the basis set was read
     ... Fine, the file contains a geometry
     ... Fine, the geometry was read
     ... Fine, the file contains a set of orbitals
     ... Fine, the orbitals can be read
     => possible old guess file was deleted
     => GBW file was renamed to GES file
     => GES file is set as startup file
     => Guess is set to MORead
     ... now leaving AutoStart



           ************************************************************
           *        Program running with 64 parallel MPI-processes    *
           *              working on a shared directory               *
           ************************************************************
------------------------------------------------------------------------------
                           ORCA GTO INTEGRAL CALCULATION
                           -- RI-GTO INTEGRALS CHOSEN --
------------------------------------------------------------------------------
------------------------------------------------------------------------------
                   ___                                                        
                  /   \      - P O W E R E D   B Y -                         
                 /     \                                                     
                 |  |  |   _    _      __       _____    __    __             
                 |  |  |  | |  | |    /  \     |  _  \  |  |  /  |          
                  \  \/   | |  | |   /    \    | | | |  |  | /  /          
                 / \  \   | |__| |  /  /\  \   | |_| |  |  |/  /          
                |  |  |   |  __  | /  /__\  \  |    /   |      \           
                |  |  |   | |  | | |   __   |  |    \   |  |\   \          
                \     /   | |  | | |  |  |  |  | |\  \  |  | \   \       
                 \___/    |_|  |_| |__|  |__|  |_| \__\ |__|  \__/        
                                                                              
                      - O R C A' S   B I G   F R I E N D -                    
                                      &                                       
                       - I N T E G R A L  F E E D E R -                       
                                                                              
 v1 FN, 2020, v2 2021                                                         
------------------------------------------------------------------------------


Reading SHARK input file zfs.SHARKINP.tmp ... ok
----------------------
SHARK INTEGRAL PACKAGE
----------------------

Number of atoms                             ...     71
Number of basis functions                   ...   1537
Number of shells                            ...    599
Maximum angular momentum                    ...      3
Integral batch strategy                     ... SHARK/LIBINT Hybrid
RI-J (if used) integral strategy            ... SPLIT-RIJ (Revised 2003 algorithm where possible)
Printlevel                                  ...      1
Contraction scheme used                     ... SEGMENTED contraction
Coulomb Range Separation                    ... NOT USED
Exchange Range Separation                   ... NOT USED
Finite Nucleus Model                        ... NOT USED
Auxiliary Coulomb fitting basis             ... AVAILABLE
   # of basis functions in Aux-J            ...   2715
   # of shells in Aux-J                     ...    821
   Maximum angular momentum in Aux-J        ...      4
Auxiliary J/K fitting basis                 ... NOT available
Auxiliary Correlation fitting basis         ... NOT available
Auxiliary 'external' fitting basis          ... NOT available
Integral threshold                          ...     3.000000e-16
Primitive cut-off                           ...     3.000000e-16
Primitive pair pre-selection threshold      ...     3.000000e-16

Calculating pre-screening integrals         ... done (  1.7 sec) Dimension = 599
Organizing shell pair data                  ... done (  0.9 sec)
Shell pair information
Total number of shell pairs                 ...    179700
Shell pairs after pre-screening             ...    116666
Total number of primitive shell pairs       ...    693545
Primitive shell pairs kept                  ...    259645
          la=0 lb=0:  28804 shell pairs
          la=1 lb=0:  33357 shell pairs
          la=1 lb=1:   9764 shell pairs
          la=2 lb=0:  19672 shell pairs
          la=2 lb=1:  11527 shell pairs
          la=2 lb=2:   3609 shell pairs
          la=3 lb=0:   5118 shell pairs
          la=3 lb=1:   2894 shell pairs
          la=3 lb=2:   1761 shell pairs
          la=3 lb=3:    160 shell pairs

Calculating one electron integrals          ... done (  0.1 sec)
Calculating RI/J V-Matrix + Cholesky decomp.... done (  0.7 sec)
Calculating Nuclear repulsion               ... done (  0.0 sec) ENN=  26256.096029069053 Eh

SHARK setup successfully completed in   3.6 seconds

Maximum memory used throughout the entire GTOINT-calculation: 178.2 MB


           ************************************************************
           *        Program running with 64 parallel MPI-processes    *
           *              working on a shared directory               *
           ************************************************************
-------------------------------------------------------------------------------
                                 ORCA SCF
-------------------------------------------------------------------------------

------------
SCF SETTINGS
------------
Hamiltonian:
 Density Functional     Method          .... DFT(GTOs)
 Exchange Functional    Exchange        .... PBE
   PBE kappa parameter   XKappa         ....  0.804000
   PBE mue parameter    XMuePBE         ....  0.219520
 Correlation Functional Correlation     .... PBE
   PBE beta parameter  CBetaPBE         ....  0.066725
 LDA part of GGA corr.  LDAOpt          .... PW91-LDA
 Gradients option       PostSCFGGA      .... off
 Hybrid DFT is turned on
   Fraction HF Exchange ScalHFX         ....  0.250000
   Scaling of DF-GGA-X  ScalDFX         ....  0.750000
   Scaling of DF-GGA-C  ScalDFC         ....  1.000000
   Scaling of DF-LDA-C  ScalLDAC        ....  1.000000
   Perturbative correction              ....  0.000000
   Density functional embedding theory  .... OFF
   NL short-range parameter             ....  6.900000
 RI-approximation to the Coulomb term is turned on
   Number of AuxJ basis functions       .... 2715
   RIJ-COSX (HFX calculated with COS-X)).... on


General Settings:
 Integral files         IntName         .... zfs
 Hartree-Fock type      HFTyp           .... UHF
 Total Charge           Charge          ....    1
 Multiplicity           Mult            ....    3
 Number of Electrons    NEL             ....  668
 Basis Dimension        Dim             .... 1537
 Nuclear Repulsion      ENuc            ....  26256.0960290691 Eh

Convergence Acceleration:
 DIIS                   CNVDIIS         .... on
   Start iteration      DIISMaxIt       ....    12
   Startup error        DIISStart       ....  0.200000
   # of expansion vecs  DIISMaxEq       ....     5
   Bias factor          DIISBfac        ....   1.050
   Max. coefficient     DIISMaxC        ....  10.000
 Trust-Rad. Augm. Hess. CNVTRAH         .... auto
   Auto Start mean grad. ratio tolernc. ....  1.125000
   Auto Start start iteration           ....     1
   Auto Start num. interpolation iter.  ....    10
   Max. Number of Micro iterations      ....    16
   Max. Number of Macro iterations      .... Maxiter - #DIIS iter
   Number of Davidson start vectors     ....     2
   Converg. threshold I  (grad. norm)   ....   1.000e-09
   Converg. threshold II (energy diff.) ....   1.000e-14
   Grad. Scal. Fac. for Micro threshold ....   0.100
   Minimum threshold for Micro iter.    ....   0.010
   NR start threshold (gradient norm)   ....   0.001
   Initial trust radius                 ....   0.400
   Minimum AH scaling param. (alpha)    ....   1.000
   Maximum AH scaling param. (alpha)    .... 1000.000
   Orbital update algorithm             .... Taylor
   White noise on init. David. guess    .... on
   Maximum white noise                  ....   0.010
   Quad. conv. algorithm                .... NR
 SOSCF                  CNVSOSCF        .... off
 Level Shifting         CNVShift        .... on
   Level shift para.    LevelShift      ....    0.2500
   Turn off err/grad.   ShiftErr        ....    0.0010
 Zerner damping         CNVZerner       .... off
 Static damping         CNVDamp         .... on
   Fraction old density DampFac         ....    0.7000
   Max. Damping (<1)    DampMax         ....    0.9800
   Min. Damping (>=0)   DampMin         ....    0.0000
   Turn off err/grad.   DampErr         ....    0.1000
 Fernandez-Rico         CNVRico         .... off

SCF Procedure:
 Maximum # iterations   MaxIter         ....   125
 SCF integral mode      SCFMode         .... Direct
   Integral package                     .... SHARK and LIBINT hybrid scheme
 Reset frequency        DirectResetFreq ....    20
 Integral Threshold     Thresh          ....  3.000e-16 Eh
 Primitive CutOff       TCut            ....  3.000e-16 Eh

Convergence Tolerance:
 Convergence Check Mode ConvCheckMode   .... All-Criteria
 Convergence forced     ConvForced      .... 0
 Energy Change          TolE            ....  1.000e-14 Eh
 Max Density Change     TolMaxP         ....  1.000e-14
 RMS Density Change     TolRMSP         ....  1.000e-14
 DIIS Error             TolErr          ....  1.000e-14


Diagonalization of the overlap matrix:
Smallest eigenvalue                        ... 8.044e-05
Time for diagonalization                   ...    0.379 sec
Threshold for overlap eigenvalues          ... 1.000e-08
Number of eigenvalues below threshold      ... 0
Time for construction of square roots      ...    0.323 sec
Total time needed                          ...    0.712 sec

---------------------
INITIAL GUESS: MOREAD
---------------------
Guess MOs are being read from file: zfs.ges
Input Geometry matches current geometry (good)
Input basis set matches current basis set (good)
MOs were renormalized
MOs were reorthogonalized (Cholesky)
                      ------------------
                      INITIAL GUESS DONE (   2.7 sec)
                      ------------------
-------------------
DFT GRID GENERATION
-------------------

General Integration Accuracy     IntAcc      ... 4.388
Radial Grid Type                 RadialGrid  ... OptM3 with GC (2021)
Angular Grid (max. ang.)         AngularGrid ... 4 (Lebedev-302)
Angular grid pruning method      GridPruning ... 4 (adaptive)
Weight generation scheme         WeightScheme... Becke
Basis function cutoff            BFCut       ... 3.0000e-16
Integration weight cutoff        WCut        ... 1.0000e-14
Angular grids for H and He will be reduced by one unit
Partially contracted basis set               ... off
Rotationally invariant grid construction     ... off

Total number of grid points                  ...   397385
Total number of batches                      ...     6245
Average number of points per batch           ...       63
Average number of grid points per atom       ...     5597
Time for grid setup =    2.301 sec

--------------------
COSX GRID GENERATION
--------------------

GRIDX 1
-------
General Integration Accuracy     IntAcc      ... 3.816
Radial Grid Type                 RadialGrid  ... OptM3 with GC (2021)
Angular Grid (max. ang.)         AngularGrid ... 1 (Lebedev-50)
Angular grid pruning method      GridPruning ... 4 (adaptive)
Weight generation scheme         WeightScheme... Becke
Basis function cutoff            BFCut       ... 3.0000e-16
Integration weight cutoff        WCut        ... 1.0000e-14
Angular grids for H and He will be reduced by one unit
Partially contracted basis set               ... on
Rotationally invariant grid construction     ... off

Total number of grid points                  ...    47093
Total number of batches                      ...      782
Average number of points per batch           ...       60
Average number of grid points per atom       ...      663
UseSFitting                                  ... on

GRIDX 2
-------
General Integration Accuracy     IntAcc      ... 4.020
Radial Grid Type                 RadialGrid  ... OptM3 with GC (2021)
Angular Grid (max. ang.)         AngularGrid ... 2 (Lebedev-110)
Angular grid pruning method      GridPruning ... 4 (adaptive)
Weight generation scheme         WeightScheme... Becke
Basis function cutoff            BFCut       ... 3.0000e-16
Integration weight cutoff        WCut        ... 1.0000e-14
Angular grids for H and He will be reduced by one unit
Partially contracted basis set               ... on
Rotationally invariant grid construction     ... off

Total number of grid points                  ...    97696
Total number of batches                      ...     1559
Average number of points per batch           ...       62
Average number of grid points per atom       ...     1376
UseSFitting                                  ... on

GRIDX 3
-------
General Integration Accuracy     IntAcc      ... 4.338
Radial Grid Type                 RadialGrid  ... OptM3 with GC (2021)
Angular Grid (max. ang.)         AngularGrid ... 3 (Lebedev-194)
Angular grid pruning method      GridPruning ... 4 (adaptive)
Weight generation scheme         WeightScheme... Becke
Basis function cutoff            BFCut       ... 3.0000e-16
Integration weight cutoff        WCut        ... 1.0000e-14
Angular grids for H and He will be reduced by one unit
Partially contracted basis set               ... on
Rotationally invariant grid construction     ... off

Total number of grid points                  ...   210255
Total number of batches                      ...     3319
Average number of points per batch           ...       63
Average number of grid points per atom       ...     2961
UseSFitting                                  ... on

Time for X-Grid setup             =    2.744 sec

--------------
SCF ITERATIONS
--------------
ITER       Energy         Delta-E        Max-DP      RMS-DP      [F,P]     Damp
               ***  Starting incremental Fock matrix formation  ***
  0 -30644.9929580216   0.000000000000 0.00000000  0.00000000  0.0000000 0.7000
  1 -30644.9929580211   0.000000000509 0.00000000  0.00000000  0.0000000 0.7000
                               ***Turning on DIIS***
  2 -30644.9929580198   0.000000001328 0.00000000  0.00000000  0.0000000 0.0000
               *** Restarting incremental Fock matrix formation ***
                                   *** Resetting DIIS ***
  3 -30644.9929580190   0.000000000837 0.00000000  0.00000000  0.0000000 0.0000
  4 -30644.9929580216  -0.000000002608 0.00000000  0.00000000  0.0000000 0.0000
  5 -30644.9929580206   0.000000001011 0.00000000  0.00000000  0.0000000 0.0000
  6 -30644.9929580206  -0.000000000018 0.00000000  0.00000000  0.0000000 0.0000
  7 -30644.9929580201   0.000000000480 0.00000000  0.00000000  0.0000000 0.0000
  8 -30644.9929580201   0.000000000051 0.00000000  0.00000000  0.0000000 0.0000
  9 -30644.9929580207  -0.000000000691 0.00000000  0.00000000  0.0000000 0.0000
 10 -30644.9929580208  -0.000000000044 0.00000000  0.00000000  0.0000000 0.0000
 11 -30644.9929580209  -0.000000000146 0.00000000  0.00000000  0.0000000 0.0000
 12 -30644.9929580214  -0.000000000509 0.00000000  0.00000000  0.0000000 0.0000
 13 -30644.9929580219  -0.000000000444 0.00000000  0.00000000  0.0000000 0.0000
 14 -30644.9929580207   0.000000001230 0.00000000  0.00000000  0.0000000 0.0000
 15 -30644.9929580215  -0.000000000880 0.00000000  0.00000000  0.0000000 0.0000
 16 -30644.9929580208   0.000000000706 0.00000000  0.00000000  0.0000000 0.0000
 17 -30644.9929580205   0.000000000320 0.00000000  0.00000000  0.0000000 0.0000
 18 -30644.9929580205   0.000000000007 0.00000000  0.00000000  0.0000000 0.0000
 19 -30644.9929580205   0.000000000029 0.00000000  0.00000000  0.0000000 0.0000

 WARNING: the maximum gradient error descreased on average only by a factor   1.0
          during the last 20 iterations

                      *** Initiating the TRAH-SCF procedure ***


TRAH GRIDX
----------

General Integration Accuracy     IntAcc      ... 3.067
Radial Grid Type                 RadialGrid  ... OptM3 with GC (2021)
Angular Grid (max. ang.)         AngularGrid ... 1 (Lebedev-50)
Angular grid pruning method      GridPruning ... 4 (adaptive)
Weight generation scheme         WeightScheme... Becke
Basis function cutoff            BFCut       ... 3.0000e-16
Integration weight cutoff        WCut        ... 1.0000e-14
Angular grids for H and He will be reduced by one unit
Partially contracted basis set               ... on
Rotationally invariant grid construction     ... off

Total number of grid points                  ...    27320
Total number of batches                      ...      470
Average number of points per batch           ...       58
Average number of grid points per atom       ...      385


TRAH GRID
---------

General Integration Accuracy     IntAcc      ... 3.467
Radial Grid Type                 RadialGrid  ... OptM3 with GC (2021)
Angular Grid (max. ang.)         AngularGrid ... 1 (Lebedev-50)
Angular grid pruning method      GridPruning ... 4 (adaptive)
Weight generation scheme         WeightScheme... Becke
Basis function cutoff            BFCut       ... 3.0000e-16
Integration weight cutoff        WCut        ... 1.0000e-14
Angular grids for H and He will be reduced by one unit
Partially contracted basis set               ... off
Rotationally invariant grid construction     ... off

Total number of grid points                  ...    96232
Total number of batches                      ...     1538
Average number of points per batch           ...       62
Average number of grid points per atom       ...     1355

 --------------------------------------------------------------------------------------------
   Iter.        energy            ||Error||_2        Shift      TRadius  Mac/Mic        Rej.
 --------------------------------------------------------------------------------------------
    0     -30644.992958050145     1.444822e-10                     0.400 (TRAH MAcro)   No

               *****************************************************
               *                     SUCCESS                       *
               *           SCF CONVERGED AFTER  21 CYCLES          *
               *****************************************************

Old exchange energy                            =   -326.201714003 Eh
New exchange energy                            =   -326.201562522 Eh
Exchange energy change after final integration =      0.000151481 Eh
Total energy after final integration           = -30644.992806569 Eh
Final COS-X integration done in                =    25.861 sec

----------------
TOTAL SCF ENERGY
----------------

Total Energy       :       -30644.99280657 Eh         -833892.64855 eV

Components:
Nuclear Repulsion  :        26256.09602907 Eh          714464.69563 eV
Electronic Energy  :       -56901.08883564 Eh        -1548357.34418 eV
One Electron Energy:       -95145.94269117 Eh        -2589052.72552 eV
Two Electron Energy:        38244.85385553 Eh         1040695.38134 eV
Max COSX asymmetry :            0.00000167 Eh               0.00005 eV

Virial components:
Potential Energy   :       -61246.22249669 Eh        -1666594.44216 eV
Kinetic Energy     :        30601.22969012 Eh          832701.79361 eV
Virial Ratio       :            2.00143011


DFT components:
N(Alpha)           :      335.000301716066 electrons
N(Beta)            :      333.000303994739 electrons
N(Total)           :      668.000605710804 electrons
E(X)               :     -977.298391379199 Eh       
E(C)               :      -29.346212627134 Eh       
E(XC)              :    -1006.644604006333 Eh       
DFET-embed. en.    :        0.000000000000 Eh       

---------------
SCF CONVERGENCE
---------------

  Last Energy change         ...   -3.0645e+04  Tolerance :   1.0000e-14
  Last Orbital Gradient      ...    1.4448e-10  Tolerance :   1.0000e-09
  Last Orbital Rotation      ...    0.0000e+00

             **** THE GBW FILE WAS UPDATED (zfs.gbw) ****
             **** DENSITY zfs.scfp WAS UPDATED ****
             **** ENERGY FILE WAS UPDATED (zfs.en.tmp) ****
----------------------
UHF SPIN CONTAMINATION
----------------------

Warning: in a DFT calculation there is little theoretical justification to 
         calculate <S**2> as in Hartree-Fock theory. We will do it anyways
         but you should keep in mind that the values have only limited relevance

Expectation value of <S**2>     :     2.040542
Ideal value S*(S+1) for S=1.0   :     2.000000
Deviation                       :     0.040542

             **** THE GBW FILE WAS UPDATED (zfs.gbw) ****
             **** DENSITY zfs.scfp WAS UPDATED ****
----------------
ORBITAL ENERGIES
----------------
                 SPIN UP ORBITALS
  NO   OCC          E(Eh)            E(eV) 
   0   1.0000    -347.748665     -9462.7223 
   1   1.0000    -347.748662     -9462.7222 
   2   1.0000    -347.748551     -9462.7191 
   3   1.0000    -347.709226     -9461.6491 
   4   1.0000    -347.709210     -9461.6486 
   5   1.0000    -347.709164     -9461.6474 
   6   1.0000    -347.709162     -9461.6473 
   7   1.0000    -347.709020     -9461.6434 
   8   1.0000    -347.709003     -9461.6430 
   9   1.0000    -347.701043     -9461.4264 
  10   1.0000    -347.701034     -9461.4261 
  11   1.0000    -347.701021     -9461.4258 
  12   1.0000    -347.700673     -9461.4163 
  13   1.0000    -347.700660     -9461.4160 
  14   1.0000    -347.700601     -9461.4144 
  15   1.0000    -347.657483     -9460.2411 
  16   1.0000    -197.287059     -5368.4538 
  17   1.0000     -42.479545     -1155.9272 
  18   1.0000     -42.479535     -1155.9269 
  19   1.0000     -42.479424     -1155.9239 
  20   1.0000     -42.440310     -1154.8595 
  21   1.0000     -42.440300     -1154.8593 
  22   1.0000     -42.440261     -1154.8582 
  23   1.0000     -42.440251     -1154.8579 
  24   1.0000     -42.440107     -1154.8540 
  25   1.0000     -42.440097     -1154.8538 
  26   1.0000     -42.432176     -1154.6382 
  27   1.0000     -42.432171     -1154.6381 
  28   1.0000     -42.432158     -1154.6377 
  29   1.0000     -42.431575     -1154.6219 
  30   1.0000     -42.431563     -1154.6215 
  31   1.0000     -42.431505     -1154.6200 
  32   1.0000     -42.388692     -1153.4549 
  33   1.0000     -37.420932     -1018.2753 
  34   1.0000     -37.420928     -1018.2752 
  35   1.0000     -37.420812     -1018.2721 
  36   1.0000     -37.420613     -1018.2666 
  37   1.0000     -37.420609     -1018.2665 
  38   1.0000     -37.420496     -1018.2635 
  39   1.0000     -37.419885     -1018.2468 
  40   1.0000     -37.419882     -1018.2468 
  41   1.0000     -37.419770     -1018.2437 
  42   1.0000     -37.381922     -1017.2138 
  43   1.0000     -37.381913     -1017.2136 
  44   1.0000     -37.381871     -1017.2124 
  45   1.0000     -37.381868     -1017.2123 
  46   1.0000     -37.381718     -1017.2083 
  47   1.0000     -37.381708     -1017.2080 
  48   1.0000     -37.381358     -1017.1985 
  49   1.0000     -37.381348     -1017.1982 
  50   1.0000     -37.381304     -1017.1970 
  51   1.0000     -37.381301     -1017.1969 
  52   1.0000     -37.381158     -1017.1930 
  53   1.0000     -37.381146     -1017.1927 
  54   1.0000     -37.380277     -1017.1690 
  55   1.0000     -37.380268     -1017.1688 
  56   1.0000     -37.380222     -1017.1675 
  57   1.0000     -37.380220     -1017.1675 
  58   1.0000     -37.380074     -1017.1635 
  59   1.0000     -37.380064     -1017.1632 
  60   1.0000     -37.373750     -1016.9914 
  61   1.0000     -37.373744     -1016.9913 
  62   1.0000     -37.373731     -1016.9909 
  63   1.0000     -37.373681     -1016.9896 
  64   1.0000     -37.373668     -1016.9892 
  65   1.0000     -37.373610     -1016.9876 
  66   1.0000     -37.373061     -1016.9727 
  67   1.0000     -37.373056     -1016.9725 
  68   1.0000     -37.373043     -1016.9722 
  69   1.0000     -37.372443     -1016.9559 
  70   1.0000     -37.372437     -1016.9557 
  71   1.0000     -37.372425     -1016.9554 
  72   1.0000     -37.371931     -1016.9419 
  73   1.0000     -37.371920     -1016.9416 
  74   1.0000     -37.371864     -1016.9401 
  75   1.0000     -37.371609     -1016.9332 
  76   1.0000     -37.371598     -1016.9329 
  77   1.0000     -37.371537     -1016.9312 
  78   1.0000     -37.330264     -1015.8081 
  79   1.0000     -37.329214     -1015.7796 
  80   1.0000     -37.329211     -1015.7795 
  81   1.0000     -22.516195      -612.6968 
  82   1.0000     -19.359635      -526.8025 
  83   1.0000     -19.359633      -526.8024 
  84   1.0000     -19.359419      -526.7966 
  85   1.0000     -19.355316      -526.6849 
  86   1.0000     -19.307698      -525.3892 
  87   1.0000     -19.307668      -525.3884 
  88   1.0000     -19.307638      -525.3875 
  89   1.0000     -19.306370      -525.3530 
  90   1.0000     -19.306362      -525.3528 
  91   1.0000     -19.306354      -525.3526 
  92   1.0000     -19.306347      -525.3524 
  93   1.0000     -19.306264      -525.3502 
  94   1.0000     -19.306263      -525.3501 
  95   1.0000     -19.273884      -524.4691 
  96   1.0000     -19.273884      -524.4690 
  97   1.0000     -19.273880      -524.4689 
  98   1.0000     -18.985936      -516.6336 
  99   1.0000     -18.985929      -516.6334 
 100   1.0000     -18.980892      -516.4963 
 101   1.0000      -5.031388      -136.9110 
 102   1.0000      -5.031380      -136.9108 
 103   1.0000      -5.031267      -136.9077 
 104   1.0000      -4.993398      -135.8773 
 105   1.0000      -4.993397      -135.8772 
 106   1.0000      -4.993358      -135.8762 
 107   1.0000      -4.993353      -135.8760 
 108   1.0000      -4.993204      -135.8720 
 109   1.0000      -4.993201      -135.8719 
 110   1.0000      -4.984415      -135.6328 
 111   1.0000      -4.984412      -135.6327 
 112   1.0000      -4.984401      -135.6325 
 113   1.0000      -4.983031      -135.5952 
 114   1.0000      -4.983019      -135.5948 
 115   1.0000      -4.982966      -135.5934 
 116   1.0000      -4.942203      -134.4842 
 117   1.0000      -3.407746       -92.7295 
 118   1.0000      -3.407736       -92.7292 
 119   1.0000      -3.407619       -92.7260 
 120   1.0000      -3.407459       -92.7217 
 121   1.0000      -3.407449       -92.7214 
 122   1.0000      -3.407338       -92.7184 
 123   1.0000      -3.406547       -92.6969 
 124   1.0000      -3.406522       -92.6962 
 125   1.0000      -3.406419       -92.6934 
 126   1.0000      -3.370518       -91.7165 
 127   1.0000      -3.370518       -91.7164 
 128   1.0000      -3.370477       -91.7153 
 129   1.0000      -3.370474       -91.7153 
 130   1.0000      -3.370326       -91.7112 
 131   1.0000      -3.370313       -91.7109 
 132   1.0000      -3.369601       -91.6915 
 133   1.0000      -3.369598       -91.6914 
 134   1.0000      -3.369565       -91.6905 
 135   1.0000      -3.369547       -91.6900 
 136   1.0000      -3.369410       -91.6863 
 137   1.0000      -3.369403       -91.6861 
 138   1.0000      -3.367901       -91.6452 
 139   1.0000      -3.367900       -91.6452 
 140   1.0000      -3.367862       -91.6442 
 141   1.0000      -3.367850       -91.6439 
 142   1.0000      -3.367709       -91.6400 
 143   1.0000      -3.367702       -91.6398 
 144   1.0000      -3.361261       -91.4646 
 145   1.0000      -3.361256       -91.4644 
 146   1.0000      -3.361246       -91.4641 
 147   1.0000      -3.360316       -91.4388 
 148   1.0000      -3.360313       -91.4388 
 149   1.0000      -3.360303       -91.4385 
 150   1.0000      -3.360043       -91.4314 
 151   1.0000      -3.359954       -91.4290 
 152   1.0000      -3.359909       -91.4278 
 153   1.0000      -3.359309       -91.4114 
 154   1.0000      -3.359307       -91.4114 
 155   1.0000      -3.359297       -91.4111 
 156   1.0000      -3.358245       -91.3825 
 157   1.0000      -3.358221       -91.3818 
 158   1.0000      -3.358163       -91.3803 
 159   1.0000      -3.357643       -91.3661 
 160   1.0000      -3.357628       -91.3657 
 161   1.0000      -3.357574       -91.3642 
 162   1.0000      -3.319444       -90.3267 
 163   1.0000      -3.317605       -90.2766 
 164   1.0000      -3.317600       -90.2765 
 165   1.0000      -2.863231       -77.9125 
 166   1.0000      -1.884110       -51.2692 
 167   1.0000      -1.884061       -51.2679 
 168   1.0000      -1.880905       -51.1820 
 169   1.0000      -1.121175       -30.5087 
 170   1.0000      -1.112839       -30.2819 
 171   1.0000      -1.107319       -30.1317 
 172   1.0000      -1.107162       -30.1274 
 173   1.0000      -1.078481       -29.3470 
 174   1.0000      -1.078439       -29.3458 
 175   1.0000      -1.078286       -29.3416 
 176   1.0000      -1.070665       -29.1343 
 177   1.0000      -1.068835       -29.0845 
 178   1.0000      -1.068797       -29.0834 
 179   1.0000      -1.064997       -28.9801 
 180   1.0000      -1.064942       -28.9785 
 181   1.0000      -1.063065       -28.9275 
 182   1.0000      -1.045406       -28.4470 
 183   1.0000      -1.039152       -28.2768 
 184   1.0000      -1.039147       -28.2766 
 185   1.0000      -0.688035       -18.7224 
 186   1.0000      -0.687992       -18.7212 
 187   1.0000      -0.685074       -18.6418 
 188   1.0000      -0.682734       -18.5781 
 189   1.0000      -0.682206       -18.5638 
 190   1.0000      -0.682161       -18.5625 
 191   1.0000      -0.677712       -18.4415 
 192   1.0000      -0.677666       -18.4402 
 193   1.0000      -0.674368       -18.3505 
 194   1.0000      -0.668353       -18.1868 
 195   1.0000      -0.665572       -18.1111 
 196   1.0000      -0.665516       -18.1096 
 197   1.0000      -0.663014       -18.0415 
 198   1.0000      -0.662636       -18.0312 
 199   1.0000      -0.662559       -18.0291 
 200   1.0000      -0.653558       -17.7842 
 201   1.0000      -0.651324       -17.7234 
 202   1.0000      -0.651260       -17.7217 
 203   1.0000      -0.649439       -17.6721 
 204   1.0000      -0.649383       -17.6706 
 205   1.0000      -0.648178       -17.6378 
 206   1.0000      -0.647585       -17.6217 
 207   1.0000      -0.647542       -17.6205 
 208   1.0000      -0.645178       -17.5562 
 209   1.0000      -0.645089       -17.5538 
 210   1.0000      -0.645066       -17.5531 
 211   1.0000      -0.644022       -17.5247 
 212   1.0000      -0.642918       -17.4947 
 213   1.0000      -0.642910       -17.4945 
 214   1.0000      -0.642123       -17.4731 
 215   1.0000      -0.640677       -17.4337 
 216   1.0000      -0.640637       -17.4326 
 217   1.0000      -0.640534       -17.4298 
 218   1.0000      -0.638898       -17.3853 
 219   1.0000      -0.638897       -17.3853 
 220   1.0000      -0.638761       -17.3816 
 221   1.0000      -0.637394       -17.3444 
 222   1.0000      -0.637388       -17.3442 
 223   1.0000      -0.637222       -17.3397 
 224   1.0000      -0.635815       -17.3014 
 225   1.0000      -0.635778       -17.3004 
 226   1.0000      -0.635021       -17.2798 
 227   1.0000      -0.634760       -17.2727 
 228   1.0000      -0.634757       -17.2726 
 229   1.0000      -0.633539       -17.2395 
 230   1.0000      -0.631672       -17.1887 
 231   1.0000      -0.631650       -17.1881 
 232   1.0000      -0.629407       -17.1270 
 233   1.0000      -0.629404       -17.1270 
 234   1.0000      -0.628987       -17.1156 
 235   1.0000      -0.626838       -17.0571 
 236   1.0000      -0.626818       -17.0566 
 237   1.0000      -0.625462       -17.0197 
 238   1.0000      -0.625443       -17.0192 
 239   1.0000      -0.624732       -16.9998 
 240   1.0000      -0.623902       -16.9772 
 241   1.0000      -0.623899       -16.9772 
 242   1.0000      -0.622562       -16.9408 
 243   1.0000      -0.622531       -16.9399 
 244   1.0000      -0.621760       -16.9189 
 245   1.0000      -0.621424       -16.9098 
 246   1.0000      -0.618764       -16.8374 
 247   1.0000      -0.618732       -16.8366 
 248   1.0000      -0.617938       -16.8149 
 249   1.0000      -0.616734       -16.7822 
 250   1.0000      -0.616716       -16.7817 
 251   1.0000      -0.615914       -16.7599 
 252   1.0000      -0.615904       -16.7596 
 253   1.0000      -0.615792       -16.7565 
 254   1.0000      -0.615225       -16.7411 
 255   1.0000      -0.614007       -16.7080 
 256   1.0000      -0.614006       -16.7080 
 257   1.0000      -0.611726       -16.6459 
 258   1.0000      -0.611678       -16.6446 
 259   1.0000      -0.611501       -16.6398 
 260   1.0000      -0.611459       -16.6386 
 261   1.0000      -0.608949       -16.5704 
 262   1.0000      -0.603423       -16.4200 
 263   1.0000      -0.601117       -16.3572 
 264   1.0000      -0.586161       -15.9502 
 265   1.0000      -0.586147       -15.9499 
 266   1.0000      -0.583473       -15.8771 
 267   1.0000      -0.583451       -15.8765 
 268   1.0000      -0.582715       -15.8565 
 269   1.0000      -0.580006       -15.7828 
 270   1.0000      -0.579986       -15.7822 
 271   1.0000      -0.576885       -15.6978 
 272   1.0000      -0.576879       -15.6977 
 273   1.0000      -0.574903       -15.6439 
 274   1.0000      -0.567828       -15.4514 
 275   1.0000      -0.565114       -15.3775 
 276   1.0000      -0.565104       -15.3773 
 277   1.0000      -0.559530       -15.2256 
 278   1.0000      -0.550663       -14.9843 
 279   1.0000      -0.550617       -14.9830 
 280   1.0000      -0.541872       -14.7451 
 281   1.0000      -0.541808       -14.7433 
 282   1.0000      -0.541773       -14.7424 
 283   1.0000      -0.538974       -14.6662 
 284   1.0000      -0.536287       -14.5931 
 285   1.0000      -0.535927       -14.5833 
 286   1.0000      -0.535849       -14.5812 
 287   1.0000      -0.530087       -14.4244 
 288   1.0000      -0.530079       -14.4242 
 289   1.0000      -0.522928       -14.2296 
 290   1.0000      -0.514626       -14.0037 
 291   1.0000      -0.514331       -13.9957 
 292   1.0000      -0.514179       -13.9915 
 293   1.0000      -0.509142       -13.8545 
 294   1.0000      -0.506739       -13.7891 
 295   1.0000      -0.506730       -13.7888 
 296   1.0000      -0.505573       -13.7573 
 297   1.0000      -0.499931       -13.6038 
 298   1.0000      -0.499929       -13.6037 
 299   1.0000      -0.498352       -13.5609 
 300   1.0000      -0.496005       -13.4970 
 301   1.0000      -0.494265       -13.4496 
 302   1.0000      -0.494242       -13.4490 
 303   1.0000      -0.491281       -13.3684 
 304   1.0000      -0.491226       -13.3669 
 305   1.0000      -0.483156       -13.1474 
 306   1.0000      -0.483129       -13.1466 
 307   1.0000      -0.481228       -13.0949 
 308   1.0000      -0.479065       -13.0360 
 309   1.0000      -0.479040       -13.0353 
 310   1.0000      -0.475610       -12.9420 
 311   1.0000      -0.473905       -12.8956 
 312   1.0000      -0.469718       -12.7817 
 313   1.0000      -0.469653       -12.7799 
 314   1.0000      -0.468172       -12.7396 
 315   1.0000      -0.459878       -12.5139 
 316   1.0000      -0.459857       -12.5133 
 317   1.0000      -0.456673       -12.4267 
 318   1.0000      -0.450503       -12.2588 
 319   1.0000      -0.450478       -12.2581 
 320   1.0000      -0.449947       -12.2437 
 321   1.0000      -0.446201       -12.1417 
 322   1.0000      -0.445992       -12.1361 
 323   1.0000      -0.445933       -12.1344 
 324   1.0000      -0.432117       -11.7585 
 325   1.0000      -0.432064       -11.7571 
 326   1.0000      -0.431232       -11.7344 
 327   1.0000      -0.431205       -11.7337 
 328   1.0000      -0.424716       -11.5571 
 329   1.0000      -0.413057       -11.2398 
 330   1.0000      -0.409283       -11.1371 
 331   1.0000      -0.409268       -11.1367 
 332   1.0000      -0.382636       -10.4120 
 333   1.0000      -0.382627       -10.4118 
 334   1.0000      -0.365594        -9.9483 
 335   0.0000      -0.215004        -5.8506 
 336   0.0000      -0.197962        -5.3868 
 337   0.0000      -0.197929        -5.3859 
 338   0.0000      -0.171986        -4.6800 
 339   0.0000      -0.151222        -4.1150 
 340   0.0000      -0.151203        -4.1144 
 341   0.0000      -0.136055        -3.7022 
 342   0.0000      -0.112442        -3.0597 
 343   0.0000      -0.102828        -2.7981 
 344   0.0000      -0.102748        -2.7959 
 345   0.0000      -0.095130        -2.5886 
 346   0.0000      -0.095104        -2.5879 
 347   0.0000      -0.088767        -2.4155 
 348   0.0000      -0.084395        -2.2965 
 349   0.0000      -0.082428        -2.2430 
 350   0.0000      -0.082399        -2.2422 
 351   0.0000      -0.065945        -1.7945 
 352   0.0000      -0.061623        -1.6768 
 353   0.0000      -0.061611        -1.6765 
 354   0.0000      -0.058364        -1.5882 
 355   0.0000      -0.054798        -1.4911 
 356   0.0000      -0.054787        -1.4908 
 357   0.0000      -0.047901        -1.3034 
 358   0.0000      -0.044987        -1.2242 
 359   0.0000      -0.044980        -1.2240 
 360   0.0000      -0.041016        -1.1161 
 361   0.0000      -0.038303        -1.0423 
 362   0.0000      -0.038259        -1.0411 
 363   0.0000      -0.033827        -0.9205 
 364   0.0000      -0.033798        -0.9197 
 365   0.0000      -0.028802        -0.7837 
 366   0.0000      -0.028793        -0.7835 
 367   0.0000      -0.026642        -0.7250 
 368   0.0000      -0.025791        -0.7018 
 369   0.0000      -0.025771        -0.7013 
 370   0.0000      -0.021925        -0.5966 
 371   0.0000      -0.018710        -0.5091 
 372   0.0000      -0.018579        -0.5055 
 373   0.0000      -0.016381        -0.4458 
 374   0.0000      -0.016167        -0.4399 
 375   0.0000      -0.014006        -0.3811 
 376   0.0000      -0.013943        -0.3794 
 377   0.0000      -0.003015        -0.0821 
 378   0.0000      -0.002998        -0.0816 
 379   0.0000       0.001565         0.0426 
 380   0.0000       0.001598         0.0435 
 381   0.0000       0.002539         0.0691 
 382   0.0000       0.005629         0.1532 
 383   0.0000       0.005666         0.1542 
 384   0.0000       0.010860         0.2955 
 385   0.0000       0.011771         0.3203 
 386   0.0000       0.014603         0.3974 
 387   0.0000       0.014664         0.3990 
 388   0.0000       0.022730         0.6185 
 389   0.0000       0.024662         0.6711 
 390   0.0000       0.025635         0.6976 
 391   0.0000       0.025680         0.6988 
 392   0.0000       0.030728         0.8362 
 393   0.0000       0.030764         0.8371 
 394   0.0000       0.045670         1.2428 
 395   0.0000       0.046978         1.2783 
 396   0.0000       0.046990         1.2786 
 397   0.0000       0.050885         1.3846 
 398   0.0000       0.054004         1.4695 
 399   0.0000       0.055181         1.5015 
 400   0.0000       0.055212         1.5024 
 401   0.0000       0.056515         1.5379 
 402   0.0000       0.061848         1.6830 
 403   0.0000       0.063068         1.7162 
 404   0.0000       0.063526         1.7286 
 405   0.0000       0.063570         1.7298 
 406   0.0000       0.072399         1.9701 
 407   0.0000       0.072425         1.9708 
 408   0.0000       0.073165         1.9909 
 409   0.0000       0.076251         2.0749 
 410   0.0000       0.076265         2.0753 
 411   0.0000       0.078238         2.1290 
 412   0.0000       0.078308         2.1309 
 413   0.0000       0.078332         2.1315 
 414   0.0000       0.082236         2.2378 
 415   0.0000       0.085951         2.3388 
 416   0.0000       0.089935         2.4473 
 417   0.0000       0.090002         2.4491 
 418   0.0000       0.095637         2.6024 
 419   0.0000       0.095685         2.6037 
 420   0.0000       0.104828         2.8525 
 421   0.0000       0.104851         2.8531 
 422   0.0000       0.106573         2.9000 
 423   0.0000       0.112935         3.0731 
 424   0.0000       0.112938         3.0732 
 425   0.0000       0.116147         3.1605 
 426   0.0000       0.117470         3.1965 
 427   0.0000       0.121377         3.3028 
[...]
 1351( 0) :     6.346178 a.u.   172.688 eV
 1352( 0) :     6.346271 a.u.   172.691 eV
 1353( 0) :     6.348879 a.u.   172.762 eV
 1354( 0) :     6.351452 a.u.   172.832 eV
 1355( 0) :     6.351468 a.u.   172.832 eV
 1356( 0) :     6.356515 a.u.   172.970 eV
 1357( 0) :     6.356552 a.u.   172.971 eV
 1358( 0) :     6.357004 a.u.   172.983 eV
 1359( 0) :     6.357093 a.u.   172.985 eV
 1360( 0) :     6.361543 a.u.   173.106 eV
 1361( 0) :     6.364177 a.u.   173.178 eV
 1362( 0) :     6.364353 a.u.   173.183 eV
 1363( 0) :     6.368901 a.u.   173.307 eV
 1364( 0) :     6.372967 a.u.   173.417 eV
 1365( 0) :     6.373001 a.u.   173.418 eV
 1366( 0) :     6.376053 a.u.   173.501 eV
 1367( 0) :     6.381620 a.u.   173.653 eV
 1368( 0) :     6.385212 a.u.   173.750 eV
 1369( 0) :     6.385233 a.u.   173.751 eV
 1370( 0) :     6.389836 a.u.   173.876 eV
 1371( 0) :     6.389867 a.u.   173.877 eV
 1372( 0) :     6.391519 a.u.   173.922 eV
 1373( 0) :     6.393922 a.u.   173.987 eV
 1374( 0) :     6.393957 a.u.   173.988 eV
 1375( 0) :     6.393984 a.u.   173.989 eV
 1376( 0) :     6.396070 a.u.   174.046 eV
 1377( 0) :     6.396604 a.u.   174.060 eV
 1378( 0) :     6.396657 a.u.   174.062 eV
 1379( 0) :     6.401654 a.u.   174.198 eV
 1380( 0) :     6.401690 a.u.   174.199 eV
 1381( 0) :     6.406777 a.u.   174.337 eV
 1382( 0) :     6.407202 a.u.   174.349 eV
 1383( 0) :     6.408109 a.u.   174.373 eV
 1384( 0) :     6.408176 a.u.   174.375 eV
 1385( 0) :     6.408539 a.u.   174.385 eV
 1386( 0) :     6.408563 a.u.   174.386 eV
 1387( 0) :     6.411742 a.u.   174.472 eV
 1388( 0) :     6.411801 a.u.   174.474 eV
 1389( 0) :     6.413045 a.u.   174.508 eV
 1390( 0) :     6.414787 a.u.   174.555 eV
 1391( 0) :     6.419419 a.u.   174.681 eV
 1392( 0) :     6.421751 a.u.   174.745 eV
 1393( 0) :     6.421788 a.u.   174.746 eV
 1394( 0) :     6.422309 a.u.   174.760 eV
 1395( 0) :     6.430855 a.u.   174.992 eV
 1396( 0) :     6.430911 a.u.   174.994 eV
 1397( 0) :     6.431391 a.u.   175.007 eV
 1398( 0) :     6.432521 a.u.   175.038 eV
 1399( 0) :     6.432574 a.u.   175.039 eV
 1400( 0) :     6.437207 a.u.   175.165 eV
 1401( 0) :     6.437446 a.u.   175.172 eV
 1402( 0) :     6.437495 a.u.   175.173 eV
 1403( 0) :     6.439738 a.u.   175.234 eV
 1404( 0) :     6.439754 a.u.   175.235 eV
 1405( 0) :     6.440822 a.u.   175.264 eV
 1406( 0) :     6.440929 a.u.   175.267 eV
 1407( 0) :     6.441384 a.u.   175.279 eV
 1408( 0) :     6.441397 a.u.   175.279 eV
 1409( 0) :     6.442200 a.u.   175.301 eV
 1410( 0) :     6.442800 a.u.   175.318 eV
 1411( 0) :     6.442812 a.u.   175.318 eV
 1412( 0) :     6.444877 a.u.   175.374 eV
 1413( 0) :     6.445220 a.u.   175.383 eV
 1414( 0) :     6.445269 a.u.   175.385 eV
 1415( 0) :     6.445950 a.u.   175.403 eV
 1416( 0) :     6.445972 a.u.   175.404 eV
 1417( 0) :     6.446779 a.u.   175.426 eV
 1418( 0) :     6.447881 a.u.   175.456 eV
 1419( 0) :     6.448088 a.u.   175.461 eV
 1420( 0) :     6.448136 a.u.   175.463 eV
 1421( 0) :     6.450176 a.u.   175.518 eV
 1422( 0) :     6.450818 a.u.   175.536 eV
 1423( 0) :     6.450826 a.u.   175.536 eV
 1424( 0) :     6.451473 a.u.   175.554 eV
 1425( 0) :     6.451479 a.u.   175.554 eV
 1426( 0) :     6.452199 a.u.   175.573 eV
 1427( 0) :     6.453960 a.u.   175.621 eV
 1428( 0) :     6.455639 a.u.   175.667 eV
 1429( 0) :     6.455661 a.u.   175.667 eV
 1430( 0) :     6.456751 a.u.   175.697 eV
 1431( 0) :     6.456775 a.u.   175.698 eV
 1432( 0) :     6.458001 a.u.   175.731 eV
 1433( 0) :     6.459644 a.u.   175.776 eV
 1434( 0) :     6.459914 a.u.   175.783 eV
 1435( 0) :     6.459934 a.u.   175.784 eV
 1436( 0) :     6.461007 a.u.   175.813 eV
 1437( 0) :     6.461669 a.u.   175.831 eV
 1438( 0) :     6.461680 a.u.   175.831 eV
 1439( 0) :     6.465250 a.u.   175.928 eV
 1440( 0) :     6.465522 a.u.   175.936 eV
 1441( 0) :     6.465549 a.u.   175.937 eV
 1442( 0) :     6.467197 a.u.   175.981 eV
 1443( 0) :     6.468784 a.u.   176.025 eV
 1444( 0) :     6.470710 a.u.   176.077 eV
 1445( 0) :     6.470743 a.u.   176.078 eV
 1446( 0) :     6.470858 a.u.   176.081 eV
 1447( 0) :     6.472891 a.u.   176.136 eV
 1448( 0) :     6.472903 a.u.   176.137 eV
 1449( 0) :     6.473746 a.u.   176.160 eV
 1450( 0) :     6.473765 a.u.   176.160 eV
 1451( 0) :     6.475062 a.u.   176.195 eV
 1452( 0) :     6.476397 a.u.   176.232 eV
 1453( 0) :     6.476419 a.u.   176.232 eV
 1454( 0) :     6.477990 a.u.   176.275 eV
 1455( 0) :     6.478018 a.u.   176.276 eV
 1456( 0) :     6.481154 a.u.   176.361 eV
 1457( 0) :     6.481218 a.u.   176.363 eV
 1458( 0) :     6.483097 a.u.   176.414 eV
 1459( 0) :     6.487118 a.u.   176.523 eV
 1460( 0) :     6.487643 a.u.   176.538 eV
 1461( 0) :     6.487653 a.u.   176.538 eV
 1462( 0) :     6.494313 a.u.   176.719 eV
 1463( 0) :     6.494552 a.u.   176.726 eV
 1464( 0) :     6.494582 a.u.   176.727 eV
 1465( 0) :     6.500331 a.u.   176.883 eV
 1466( 0) :     6.500348 a.u.   176.883 eV
 1467( 0) :     6.513240 a.u.   177.234 eV
 1468( 0) :     6.513258 a.u.   177.235 eV
 1469( 0) :     6.514566 a.u.   177.270 eV
 1470( 0) :     6.515051 a.u.   177.284 eV
 1471( 0) :     6.527673 a.u.   177.627 eV
 1472( 0) :     6.527792 a.u.   177.630 eV
 1473( 0) :     6.653458 a.u.   181.050 eV
 1474( 0) :     6.653575 a.u.   181.053 eV
 1475( 0) :     6.654013 a.u.   181.065 eV
 1476( 0) :     6.671956 a.u.   181.553 eV
 1477( 0) :     6.672055 a.u.   181.556 eV
 1478( 0) :     6.679080 a.u.   181.747 eV
 1479( 0) :     6.679303 a.u.   181.753 eV
 1480( 0) :     6.688056 a.u.   181.991 eV
 1481( 0) :     6.696298 a.u.   182.216 eV
 1482( 0) :     6.696342 a.u.   182.217 eV
 1483( 0) :     6.701490 a.u.   182.357 eV
 1484( 0) :     6.706896 a.u.   182.504 eV
 1485( 0) :     6.708497 a.u.   182.547 eV
 1486( 0) :     6.708654 a.u.   182.552 eV
 1487( 0) :     6.715172 a.u.   182.729 eV
 1488( 0) :     6.715187 a.u.   182.730 eV
 1489( 0) :     6.720529 a.u.   182.875 eV
 1490( 0) :     6.723364 a.u.   182.952 eV
 1491( 0) :     6.725095 a.u.   182.999 eV
 1492( 0) :     6.725217 a.u.   183.002 eV
 1493( 0) :     6.740984 a.u.   183.432 eV
 1494( 0) :     6.742186 a.u.   183.464 eV
 1495( 0) :     6.742290 a.u.   183.467 eV
 1496( 0) :     6.748699 a.u.   183.641 eV
 1497( 0) :     6.759453 a.u.   183.934 eV
 1498( 0) :     6.759479 a.u.   183.935 eV
 1499( 0) :     6.777185 a.u.   184.417 eV
 1500( 0) :     6.778094 a.u.   184.441 eV
 1501( 0) :     6.792669 a.u.   184.838 eV
 1502( 0) :     6.890400 a.u.   187.497 eV
 1503( 0) :     6.892086 a.u.   187.543 eV
 1504( 0) :     6.892277 a.u.   187.548 eV
 1505( 0) :     6.927886 a.u.   188.517 eV
 1506( 0) :     6.927912 a.u.   188.518 eV
 1507( 0) :     6.930445 a.u.   188.587 eV
 1508( 0) :     6.970309 a.u.   189.672 eV
 1509( 0) :     6.997873 a.u.   190.422 eV
 1510( 0) :     6.999753 a.u.   190.473 eV
 1511( 0) :     6.999831 a.u.   190.475 eV
 1512( 0) :     7.013740 a.u.   190.854 eV
 1513( 0) :     7.013779 a.u.   190.855 eV
 1514( 0) :     7.022983 a.u.   191.105 eV
 1515( 0) :     7.042666 a.u.   191.641 eV
 1516( 0) :     7.050949 a.u.   191.866 eV
 1517( 0) :     7.051142 a.u.   191.871 eV
 1518( 0) :     7.056961 a.u.   192.030 eV
 1519( 0) :     7.094746 a.u.   193.058 eV
 1520( 0) :     7.094820 a.u.   193.060 eV
 1521( 0) :    43.727403 a.u.  1189.883 eV
 1522( 0) :    43.792979 a.u.  1191.668 eV
 1523( 0) :    43.793271 a.u.  1191.675 eV
 1524( 0) :    43.811904 a.u.  1192.183 eV
 1525( 0) :    43.819874 a.u.  1192.399 eV
 1526( 0) :    43.836836 a.u.  1192.861 eV
 1527( 0) :    43.837180 a.u.  1192.870 eV
 1528( 0) :    43.872599 a.u.  1193.834 eV
 1529( 0) :    43.873025 a.u.  1193.846 eV
 1530( 0) :    43.882362 a.u.  1194.100 eV
 1531( 0) :    43.893353 a.u.  1194.399 eV
 1532( 0) :    43.960698 a.u.  1196.231 eV
 1533( 0) :    43.965790 a.u.  1196.370 eV
 1534( 0) :    43.966464 a.u.  1196.388 eV
 1535( 0) :    44.010892 a.u.  1197.597 eV
 1536( 0) :    44.011166 a.u.  1197.605 eV
-------
TIMINGS
-------

Total SCF time: 0 days 0 hours 4 min 50 sec 

Total time                  ....     290.399 sec
Sum of individual times     ....     278.154 sec  ( 95.8%)

Fock matrix formation       ....     202.562 sec  ( 69.8%)
  Split-RI-J                ....      20.186 sec  ( 10.0% of F)
  Chain of spheres X        ....     146.401 sec  ( 72.3% of F)
  XC integration            ....      21.221 sec  ( 10.5% of F)
    Basis function eval.    ....       2.387 sec  ( 11.3% of XC)
    Density eval.           ....      11.715 sec  ( 55.2% of XC)
    XC-Functional eval.     ....       0.501 sec  (  2.4% of XC)
    XC-Potential eval.      ....       2.378 sec  ( 11.2% of XC)
Diagonalization             ....      16.926 sec  (  5.8%)
Density matrix formation    ....       1.209 sec  (  0.4%)
Population analysis         ....      27.164 sec  (  9.4%)
Initial guess               ....       2.672 sec  (  0.9%)
Orbital Transformation      ....       1.058 sec  (  0.4%)
Orbital Orthonormalization  ....       2.427 sec  (  0.8%)
DIIS solution               ....      21.435 sec  (  7.4%)
Grid generation             ....       5.045 sec  (  1.7%)

Maximum memory used throughout the entire SCF-calculation: 691.8 MB

-------------------------   --------------------
FINAL SINGLE POINT ENERGY    -30644.992806568829
-------------------------   --------------------

   --->>> SOC part of D-tensor requested, so NeedSOC=true

                            ***************************************
                            *     ORCA property calculations      *
                            ***************************************

                                    ---------------------
                                    Active property flags
                                    ---------------------
   (+) Dipole Moment
   (+) D-tensor
   (+) Spin-Orbit Integrals are needed


------------------------------------------------------------------------------
                       ORCA ELECTRIC PROPERTIES CALCULATION
------------------------------------------------------------------------------

Dipole Moment Calculation                       ... on
Quadrupole Moment Calculation                   ... off
Polarizability Calculation                      ... off
GBWName                                         ... zfs.gbw
Electron density                                ... zfs.scfp
The origin for moment calculation is the CENTER OF MASS  = (12.278146, 21.265767 28.683016)

-------------
DIPOLE MOMENT
-------------
                                X             Y             Z
Electronic contribution:      0.00993      -0.00605      13.63766
Nuclear contribution   :     -0.00567       0.00327     -15.55461
                        -----------------------------------------
Total Dipole Moment    :      0.00426      -0.00278      -1.91695
                        -----------------------------------------
Magnitude (a.u.)       :      1.91696
Magnitude (Debye)      :      4.87252



--------------------
Rotational spectrum 
--------------------
 
Rotational constants in cm-1:     0.001555     0.001387     0.001386 
Rotational constants in MHz :    46.612657    41.575289    41.558755 

 Dipole components along the rotational axes: 
x,y,z [a.u.] :    -1.916949    -0.005411     0.000279 
x,y,z [Debye]:    -4.872497    -0.013753     0.000710 

 


           ************************************************************
           *        Program running with 64 parallel MPI-processes    *
           *              working on a shared directory               *
           ************************************************************
------------------------------------------------------------------------------
                         ORCA SPIN-ORBIT COUPLING CALCULATION
------------------------------------------------------------------------------

GBW file                                    ... zfs.gbw
Input density                               ... zfs.scfp
Output integrals                            ... zfs
Operator type                               ... Mean-field/Effective potential
   One-Electron Terms                       ... 1
   Coulomb Contribution                     ... 3
   Exchange Contribution                    ... 3
   Correlation Contribution                 ... 0
   Maximum number of centers                ... 4
SHARK 2-electron RIJ-SOMF                   ... done ( 13.0 sec)
SHARK 1-electron  MaxCenter=4               ... done (  0.3 sec)
SHARK 2-electron DoJ,X=0,1 MaxCenter=1      ... done (  8.6 sec)

Maximum memory used throughout the entire SOC-calculation: 2599.2 MB
Total time for SOC: 25.409


           ************************************************************
           *        Program running with 64 parallel MPI-processes    *
           *              working on a shared directory               *
           ************************************************************
------------------------------------------------------------------------------
                                ORCA EPR/NMR CALCULATION
------------------------------------------------------------------------------

GBWName                      ... zfs.gbw
Electron density             ... zfs.scfp
Spin density                 ... zfs.scfr
Spin-orbit integrals         ... zfs
Multiplicity                 ... 3
g-tensor                     ... 0
NMR chemical shifts          ... 0
D-tensor                     ... spin-spin and spin-orbit
D(SS)-algorithm              ... input spin density
NMR spin-spin couplings      ... 0
NMR spectrum                 ... 0

Starting the spin-spin zero-field-splitting computation (DIRECT)...
SHARK: Electron-Electron contact term tr(DSS) =    0.0000 1/cm
                                      tr(DSSJ)=    3.5062 1/cm
                                      tr(DSSK)=   -3.5062 1/cm

                        ... done with spin-spin calculation

Starting the spin-orbit zero-field-splitting computation (CP)...

---------------------------
COUPLED-PERTURBED SCF D-SOC
---------------------------

 Orbital range for operator   0: 0..334 to 335..1536
 Orbital range for operator   1: 0..332 to 333..1536
Reading Spin-Orbit Integrals                  ... done
Transforming integrals                       ... done
Max(Pert)=   1.0566e-01
Scaling perturbations by   9.4643e+00

Poples Solver
     CP-SCF ITERATION   0: 
     CP-SCF ITERATION   1:      0.042409703
     CP-SCF ITERATION   2:      0.009076607
     CP-SCF ITERATION   3:      0.001303242
     CP-SCF ITERATION   4:      0.000375147
     CP-SCF ITERATION   5:      0.000152702
     CP-SCF ITERATION   6:      0.000034342
     CP-SCF ITERATION   7:      0.000003515
     CP-SCF ITERATION   8:      0.000020758
     CP-SCF ITERATION   9:      0.000002256
ZFS-Tensor - using the prefactors
     -1/(2S(2*S-1)) for same spin
     -1/(2S(2*S-1)) for alpha->beta
     -1/(2S(2*S-1)) for beta->alpha
                        ... done with spin-orbit calculation

---------------------------
ZERO-FIELD-SPLITTING TENSOR
---------------------------

raw-matrix : 
  -2.443477     0.001727     0.001091  
   0.001727    -2.441416    -0.000585  
   0.001091    -0.000585    -1.930488  

Tensor is right-handed
diagonalized D matrix : 
  -2.444461    -2.440436    -1.930485  

   0.869617    -0.493722    -0.002123  
  -0.493720    -0.869620     0.001138  
  -0.002409     0.000058    -0.999997  


Direction X=1 Y=0 Z=2
D   =     0.511964  cm**-1
E/D =     0.003931

SPIN-SPIN-PART
                  0          1          2    
      0      -0.099372  -0.000047  -0.000244
      1      -0.000047  -0.099521   0.000234
      2      -0.000244   0.000234   0.198893
Exchange and Coulomb parts of SS (raw)
Coulomb
                  0          1          2    
      0       0.013367   0.000031  -0.000515
      1       0.000031   0.013357   0.000408
      2      -0.000515   0.000408  -0.026724
Exchange
                  0          1          2    
      0      -0.112738  -0.000078   0.000271
      1      -0.000078  -0.112878  -0.000174
      2       0.000271  -0.000174   0.225617
One-, two-, three- and four-center SS contributions (raw)
One-Center            (AA|AA):
                  0          1          2    
      0      -0.100336   0.000033  -0.000102
      1       0.000033  -0.100391   0.000150
      2      -0.000102   0.000150   0.200727
Two-Center-Coulomb    (AA|BB):
                  0          1          2    
      0       0.014864   0.000044  -0.000019
      1       0.000044   0.014906   0.000020
      2      -0.000019   0.000020  -0.029770
Two-Center-Exchange   (AB|BA):
                  0          1          2    
      0      -0.003667  -0.000003   0.000007
      1      -0.000003  -0.003673  -0.000003
      2       0.000007  -0.000003   0.007340
Two-Center-hybrid     (AA|AB):
                  0          1          2    
      0      -0.005172  -0.000125  -0.000160
      1      -0.000125  -0.005311   0.000104
      2      -0.000160   0.000104   0.010483
Three-Center-Coulomb  (AA|BC):
                  0          1          2    
      0      -0.006334  -0.000001   0.000032
      1      -0.000001  -0.006331  -0.000038
      2       0.000032  -0.000038   0.012665
Three-Center-Exchange (AB|AC):
                  0          1          2    
      0       0.001097   0.000005  -0.000003
      1       0.000005   0.001102   0.000000
      2      -0.000003   0.000000  -0.002199
Four-Center           (AB|CD):
                  0          1          2    
      0       0.000176   0.000000   0.000001
      1       0.000000   0.000177   0.000000
      2       0.000001   0.000000  -0.000354
ALPHA-PART
                  0          1          2    
      0     -5059.054772  -0.004784  -0.002433
      1      -0.004782 -5059.061570   0.001807
      2      -0.002452   0.001832 -5055.541643
BETA-PART
                  0          1          2    
      0     5053.599607   0.004070   0.004522
      1       0.004070 5053.605734  -0.002759
      2       0.004524  -0.003048 5052.445479
ALPHA->BETA-PART
                  0          1          2    
      0     5034.100408   0.005268   0.003221
      1       0.005270 5034.107088  -0.001855
      2       0.003229  -0.001894 5031.272630
BETA->ALPHA-PART
                  0          1          2    
      0     -5030.989349  -0.002782  -0.003965
      1      -0.002785 -5030.993147   0.002254
      2      -0.003965   0.002290 -5030.305845

Individual contributions (in cm**-1)
                                   D         E
SPIN-SPIN                  :   0.29833   -0.00008
  Exchange vs Coulomb
  Coulomb                  :  -0.04009    0.00002
  Exchange                 :   0.33842   -0.00010
  One through four center contributions:
  1-center                 :   0.30109    0.00001
  2-center-Coulomb         :  -0.04465    0.00005
  2-center-Exchange        :   0.01101   -0.00000
  2-center-Hybrid          :   0.01572   -0.00014
  3-center-Coulomb         :   0.01900    0.00000
  3-center-Exchange        :  -0.00330    0.00001
  4-center                 :  -0.00053    0.00000
SPIN-ORBIT                 :   0.21363    0.00209
SOMO->VMO  (alpha->alpha)  :   3.51648   -0.00587
DOMO->SOMO (beta ->beta )  :  -1.15714    0.00508
SOMO->SOMO (alpha->beta )  :  -2.83107    0.00625
DOMO->VMO  (beta ->alpha)  :   0.68536   -0.00338


Maximum memory used throughout the entire EPRNMR-calculation: 2771.4 MB

Timings for individual modules:

Sum of individual times         ...      890.162 sec (=  14.836 min)
GTO integral calculation        ...        4.452 sec (=   0.074 min)   0.5 %
Spin-Orbit-Coupling Matrices    ...       25.386 sec (=   0.423 min)   2.9 %
SCF iterations                  ...      291.259 sec (=   4.854 min)  32.7 %
EPR/NMR calculation             ...      569.064 sec (=   9.484 min)  63.9 %
                             ****ORCA TERMINATED NORMALLY****
TOTAL RUN TIME: 0 days 0 hours 14 minutes 55 seconds 818 msec
