  191  191    5    2
  0.1195271E+02  0.1299435E-08  0.1299435E-08  0.1561204E-08  0.5000000E-15
  1.000000000000000E-004
  CAR 
 zno                                     
   1722      1   1056
 
  0.0000000E+00  0.0000000E+00  0.0000000E+00  0.1000000E+01
      1        -59.749882      -58.558055   1.000000   1.000000
      2        -34.128293      -32.841287   1.000000   1.000000
      3        -34.127481      -32.840751   1.000000   1.000000
      4        -33.964014      -32.094550   1.000000   1.000000
      5        -21.158380      -21.067982   1.000000   1.000000
      6        -20.851188      -20.766464   1.000000   1.000000
      7        -20.850396      -20.747398   1.000000   1.000000
      8        -20.780221      -20.746782   1.000000   1.000000
      9        -20.645571      -20.642202   1.000000   1.000000
     10        -20.605101      -20.603706   1.000000   1.000000
     11        -20.551705      -20.548174   1.000000   1.000000
     12        -20.551494      -20.547951   1.000000   1.000000
     13        -20.504496      -20.503977   1.000000   1.000000
     14        -20.491159      -20.480448   1.000000   1.000000
     15        -20.490868      -20.473993   1.000000   1.000000
     16        -20.484396      -20.473632   1.000000   1.000000
     17        -20.387971      -20.377041   1.000000   1.000000
     18        -20.387842      -20.376943   1.000000   1.000000
     19        -20.359648      -20.360581   1.000000   1.000000
     20        -20.358313      -20.356309   1.000000   1.000000
     21        -20.358247      -20.356232   1.000000   1.000000
     22        -20.343884      -20.341513   1.000000   1.000000
     23        -20.343779      -20.341427   1.000000   1.000000
     24        -20.341389      -20.340929   1.000000   1.000000
     25        -20.335238      -20.333077   1.000000   1.000000
     26        -20.335182      -20.333024   1.000000   1.000000
     27        -20.323301      -20.323191   1.000000   1.000000
     28        -20.289981      -20.284769   1.000000   1.000000
     29        -20.251724      -20.251755   1.000000   1.000000
     30        -20.238028      -20.233144   1.000000   1.000000
     31        -20.225894      -20.223533   1.000000   1.000000
     32        -20.219371      -20.213391   1.000000   1.000000
     33        -20.198319      -20.197309   1.000000   1.000000
     34        -20.198209      -20.197216   1.000000   1.000000
     35        -20.162173      -20.156516   1.000000   1.000000
     36        -20.162130      -20.156502   1.000000   1.000000
     37        -20.152469      -20.150331   1.000000   1.000000
     38        -20.152211      -20.150145   1.000000   1.000000
     39        -20.150537      -20.149425   1.000000   1.000000
     40        -20.123242      -20.122280   1.000000   1.000000
     41        -20.122959      -20.121994   1.000000   1.000000
     42        -20.113212      -20.107608   1.000000   1.000000
     43        -20.083774      -20.083607   1.000000   1.000000
     44        -20.083560      -20.075902   1.000000   1.000000
     45        -20.083362      -20.075845   1.000000   1.000000
     46        -20.081701      -20.073192   1.000000   1.000000
     47        -20.081558      -20.072951   1.000000   1.000000
     48        -20.069088      -20.068024   1.000000   1.000000
     49        -20.063990      -20.053857   1.000000   1.000000
     50        -20.063863      -20.053678   1.000000   1.000000
     51        -20.052846      -20.050678   1.000000   1.000000
     52        -20.043100      -20.042775   1.000000   1.000000
     53        -20.043046      -20.042719   1.000000   1.000000
     54        -20.039126      -20.038249   1.000000   1.000000
     55        -20.037931      -20.036221   1.000000   1.000000
     56        -20.037909      -20.036135   1.000000   1.000000
     57        -20.037303      -20.035032   1.000000   1.000000
     58        -20.037230      -20.023977   1.000000   1.000000
     59        -20.024163      -20.023880   1.000000   1.000000
     60        -20.017916      -20.017778   1.000000   1.000000
     61        -20.017886      -20.017777   1.000000   1.000000
     62        -20.007065      -20.007578   1.000000   1.000000
     63        -20.005372      -20.004627   1.000000   1.000000
     64        -20.005284      -20.004543   1.000000   1.000000
     65        -20.000854      -19.999887   1.000000   1.000000
     66        -20.000821      -19.999874   1.000000   1.000000
     67        -19.996955      -19.996328   1.000000   1.000000
     68        -19.978240      -19.973974   1.000000   1.000000
     69        -19.978234      -19.973954   1.000000   1.000000
     70        -19.974089      -19.965954   1.000000   1.000000
     71        -19.939393      -19.935130   1.000000   1.000000
     72        -19.939338      -19.935084   1.000000   1.000000
     73        -19.932060      -19.931631   1.000000   1.000000
     74        -19.931982      -19.931551   1.000000   1.000000
     75        -19.928868      -19.929725   1.000000   1.000000
     76        -19.925095      -19.923842   1.000000   1.000000
     77        -19.918387      -19.918651   1.000000   1.000000
     78        -19.907211      -19.906645   1.000000   1.000000
     79        -19.907194      -19.906610   1.000000   1.000000
     80        -19.904695      -19.900348   1.000000   1.000000
     81        -19.900537      -19.900261   1.000000   1.000000
     82        -19.900411      -19.898902   1.000000   1.000000
     83        -19.892589      -19.892098   1.000000   1.000000
     84        -19.892558      -19.892080   1.000000   1.000000
     85        -19.888647      -19.888640   1.000000   1.000000
     86        -19.885129      -19.884293   1.000000   1.000000
     87        -19.885129      -19.884275   1.000000   1.000000
     88        -19.883422      -19.881788   1.000000   1.000000
     89        -19.883303      -19.881668   1.000000   1.000000
     90        -19.879026      -19.877916   1.000000   1.000000
     91        -19.835359      -19.835381   1.000000   1.000000
     92        -19.819592      -19.822221   1.000000   1.000000
     93        -19.819509      -19.822125   1.000000   1.000000
     94        -19.813723      -19.812822   1.000000   1.000000
     95        -19.811712      -19.811787   1.000000   1.000000
     96        -19.811638      -19.811706   1.000000   1.000000
     97        -19.810367      -19.810147   1.000000   1.000000
     98        -19.807480      -19.807095   1.000000   1.000000
     99        -19.807409      -19.807021   1.000000   1.000000
    100         -8.044681       -8.037347   1.000000   1.000000
    101         -8.042518       -8.037175   1.000000   1.000000
    102         -8.042487       -8.027541   1.000000   1.000000
    103         -8.031860       -8.000923   1.000000   1.000000
    104         -8.031496       -8.000493   1.000000   1.000000
    105         -8.016344       -7.995628   1.000000   1.000000
    106         -7.979854       -7.976192   1.000000   1.000000
    107         -7.975145       -7.972345   1.000000   1.000000
    108         -7.974990       -7.972200   1.000000   1.000000
    109         -7.962912       -7.949518   1.000000   1.000000
    110         -7.962859       -7.949499   1.000000   1.000000
    111         -7.946941       -7.944575   1.000000   1.000000
    112         -7.931485       -7.926549   1.000000   1.000000
    113         -7.931484       -7.926516   1.000000   1.000000
    114         -7.908865       -7.903558   1.000000   1.000000
    115         -7.908766       -7.903527   1.000000   1.000000
    116         -7.905541       -7.899977   1.000000   1.000000
    117         -7.905161       -7.899973   1.000000   1.000000
    118         -7.905072       -7.898825   1.000000   1.000000
    119         -7.890218       -7.886340   1.000000   1.000000
    120         -7.880793       -7.876733   1.000000   1.000000
    121         -7.880540       -7.876496   1.000000   1.000000
    122         -7.878358       -7.876216   1.000000   1.000000
    123         -7.877256       -7.862503   1.000000   1.000000
    124         -7.854333       -7.845623   1.000000   1.000000
    125         -7.847969       -7.841055   1.000000   1.000000
    126         -7.847859       -7.841043   1.000000   1.000000
    127         -7.834280       -7.824111   1.000000   1.000000
    128         -7.834265       -7.824080   1.000000   1.000000
    129         -7.814556       -7.809185   1.000000   1.000000
    130         -7.814500       -7.809136   1.000000   1.000000
    131         -7.811000       -7.807781   1.000000   1.000000
    132         -7.797582       -7.795858   1.000000   1.000000
    133         -7.797470       -7.795713   1.000000   1.000000
    134         -7.785668       -7.779219   1.000000   1.000000
    135         -7.784196       -7.776820   1.000000   1.000000
    136         -7.784051       -7.775684   1.000000   1.000000
    137         -7.779685       -7.775503   1.000000   1.000000
    138         -7.770641       -7.767765   1.000000   1.000000
    139         -7.769864       -7.767756   1.000000   1.000000
    140         -7.769848       -7.766249   1.000000   1.000000
    141         -7.767912       -7.765715   1.000000   1.000000
    142         -7.763961       -7.757385   1.000000   1.000000
    143         -7.763887       -7.757293   1.000000   1.000000
    144         -7.758056       -7.757231   1.000000   1.000000
    145         -7.749152       -7.747511   1.000000   1.000000
    146         -7.748295       -7.746851   1.000000   1.000000
    147         -7.748200       -7.746752   1.000000   1.000000
    148         -7.743601       -7.741090   1.000000   1.000000
    149         -7.739499       -7.738307   1.000000   1.000000
    150         -7.738376       -7.735866   1.000000   1.000000
    151         -7.738372       -7.735406   1.000000   1.000000
    152         -7.737466       -7.735405   1.000000   1.000000
    153         -7.726336       -7.725584   1.000000   1.000000
    154         -7.726234       -7.719717   1.000000   1.000000
    155         -7.726009       -7.719655   1.000000   1.000000
    156         -7.720629       -7.718255   1.000000   1.000000
    157         -7.714746       -7.712970   1.000000   1.000000
    158         -7.714660       -7.712876   1.000000   1.000000
    159         -7.704619       -7.698722   1.000000   1.000000
    160         -7.704597       -7.698716   1.000000   1.000000
    161         -7.693213       -7.691878   1.000000   1.000000
    162         -7.693116       -7.691772   1.000000   1.000000
    163         -7.690057       -7.687469   1.000000   1.000000
    164         -7.690039       -7.687385   1.000000   1.000000
    165         -7.688805       -7.687382   1.000000   1.000000
    166         -7.688742       -7.682486   1.000000   1.000000
    167         -7.688114       -7.682437   1.000000   1.000000
    168         -7.679986       -7.679629   1.000000   1.000000
    169         -7.675728       -7.673321   1.000000   1.000000
    170         -7.670195       -7.667646   1.000000   1.000000
    171         -7.670094       -7.667566   1.000000   1.000000
    172         -7.664875       -7.663698   1.000000   1.000000
    173         -7.664204       -7.663074   1.000000   1.000000
    174         -7.664071       -7.662950   1.000000   1.000000
    175         -7.658303       -7.656507   1.000000   1.000000
    176         -7.655807       -7.654845   1.000000   1.000000
    177         -7.655769       -7.654807   1.000000   1.000000
    178         -7.650966       -7.649126   1.000000   1.000000
    179         -7.650951       -7.649095   1.000000   1.000000
    180         -7.644683       -7.642714   1.000000   1.000000
    181         -7.642383       -7.639771   1.000000   1.000000
    182         -7.642376       -7.639728   1.000000   1.000000
    183         -7.634342       -7.633237   1.000000   1.000000
    184         -7.634311       -7.633190   1.000000   1.000000
    185         -7.622715       -7.622032   1.000000   1.000000
    186         -7.619046       -7.616755   1.000000   1.000000
    187         -7.617569       -7.614865   1.000000   1.000000
    188         -7.616114       -7.614092   1.000000   1.000000
    189         -7.616085       -7.614070   1.000000   1.000000
    190         -7.614397       -7.611437   1.000000   1.000000
    191         -7.614355       -7.611388   1.000000   1.000000
    192         -7.609171       -7.608187   1.000000   1.000000
    193         -7.606436       -7.605381   1.000000   1.000000
    194         -7.606400       -7.605335   1.000000   1.000000
    195         -7.597922       -7.593681   1.000000   1.000000
    196         -7.597890       -7.593655   1.000000   1.000000
    197         -7.595611       -7.590369   1.000000   1.000000
    198         -7.586541       -7.585603   1.000000   1.000000
    199         -7.586468       -7.585226   1.000000   1.000000
    200         -7.586238       -7.585152   1.000000   1.000000
    201         -7.581559       -7.580587   1.000000   1.000000
    202         -7.577850       -7.576903   1.000000   1.000000
    203         -7.577818       -7.576865   1.000000   1.000000
    204         -7.571911       -7.570482   1.000000   1.000000
    205         -7.571898       -7.570435   1.000000   1.000000
    206         -7.570480       -7.569099   1.000000   1.000000
    207         -7.570461       -7.569060   1.000000   1.000000
    208         -7.567243       -7.565131   1.000000   1.000000
    209         -7.560775       -7.556176   1.000000   1.000000
    210         -7.557086       -7.555976   1.000000   1.000000
    211         -7.557070       -7.555943   1.000000   1.000000
    212         -7.556180       -7.555469   1.000000   1.000000
    213         -7.555792       -7.551350   1.000000   1.000000
    214         -7.552130       -7.550394   1.000000   1.000000
    215         -7.544307       -7.542242   1.000000   1.000000
    216         -7.544283       -7.542218   1.000000   1.000000
    217         -7.530977       -7.529690   1.000000   1.000000
    218         -7.530936       -7.529639   1.000000   1.000000
    219         -7.525105       -7.522925   1.000000   1.000000
    220         -7.524989       -7.522814   1.000000   1.000000
    221         -7.517613       -7.516139   1.000000   1.000000
    222         -7.517536       -7.516049   1.000000   1.000000
    223         -7.514846       -7.514711   1.000000   1.000000
    224         -7.514578       -7.513483   1.000000   1.000000
    225         -7.509620       -7.508670   1.000000   1.000000
    226         -7.509614       -7.508651   1.000000   1.000000
    227         -7.503892       -7.502106   1.000000   1.000000
    228         -7.498707       -7.498083   1.000000   1.000000
    229         -7.498664       -7.498039   1.000000   1.000000
    230         -7.498038       -7.497525   1.000000   1.000000
    231         -7.495179       -7.494391   1.000000   1.000000
    232         -7.482965       -7.482182   1.000000   1.000000
    233         -7.478069       -7.476237   1.000000   1.000000
    234         -7.478047       -7.476209   1.000000   1.000000
    235         -7.474175       -7.472236   1.000000   1.000000
    236         -7.474162       -7.472231   1.000000   1.000000
    237         -7.469165       -7.466089   1.000000   1.000000
    238         -7.469111       -7.466021   1.000000   1.000000
    239         -7.457398       -7.455827   1.000000   1.000000
    240         -7.456361       -7.453743   1.000000   1.000000
    241         -7.456328       -7.453446   1.000000   1.000000
    242         -7.453846       -7.453406   1.000000   1.000000
    243         -7.448849       -7.446859   1.000000   1.000000
    244         -7.448785       -7.446784   1.000000   1.000000
    245         -7.438642       -7.437632   1.000000   1.000000
    246         -7.435128       -7.427776   1.000000   1.000000
    247         -7.430523       -7.427764   1.000000   1.000000
    248         -7.430520       -7.425635   1.000000   1.000000
    249         -7.426582       -7.425374   1.000000   1.000000
    250         -7.426538       -7.425326   1.000000   1.000000
    251         -7.421938       -7.420701   1.000000   1.000000
    252         -7.414309       -7.410713   1.000000   1.000000
    253         -7.411494       -7.410663   1.000000   1.000000
    254         -7.411440       -7.408990   1.000000   1.000000
    255         -7.408825       -7.407127   1.000000   1.000000
    256         -7.400582       -7.398495   1.000000   1.000000
    257         -7.400399       -7.398465   1.000000   1.000000
    258         -7.400355       -7.398174   1.000000   1.000000
    259         -7.391905       -7.390893   1.000000   1.000000
    260         -7.391850       -7.390857   1.000000   1.000000
    261         -7.388648       -7.387893   1.000000   1.000000
    262         -7.387949       -7.387484   1.000000   1.000000
    263         -7.387921       -7.387454   1.000000   1.000000
    264         -7.385316       -7.385013   1.000000   1.000000
    265         -7.382835       -7.382597   1.000000   1.000000
    266         -7.380944       -7.379077   1.000000   1.000000
    267         -7.380867       -7.378987   1.000000   1.000000
    268         -7.372926       -7.371378   1.000000   1.000000
    269         -7.372883       -7.371337   1.000000   1.000000
    270         -7.371194       -7.370078   1.000000   1.000000
    271         -7.363469       -7.362658   1.000000   1.000000
    272         -7.362807       -7.362035   1.000000   1.000000
    273         -7.362671       -7.361893   1.000000   1.000000
    274         -7.356611       -7.355604   1.000000   1.000000
    275         -7.356607       -7.355597   1.000000   1.000000
    276         -7.352456       -7.351173   1.000000   1.000000
    277         -7.349005       -7.346424   1.000000   1.000000
    278         -7.348981       -7.346397   1.000000   1.000000
    279         -7.340497       -7.338791   1.000000   1.000000
    280         -7.339727       -7.338459   1.000000   1.000000
    281         -7.339647       -7.338074   1.000000   1.000000
    282         -7.338420       -7.337991   1.000000   1.000000
    283         -7.337806       -7.336056   1.000000   1.000000
    284         -7.337717       -7.335976   1.000000   1.000000
    285         -7.327380       -7.326821   1.000000   1.000000
    286         -7.327187       -7.326793   1.000000   1.000000
    287         -7.327176       -7.325175   1.000000   1.000000
    288         -7.326493       -7.325168   1.000000   1.000000
    289         -7.326477       -7.324483   1.000000   1.000000
    290         -7.316326       -7.314815   1.000000   1.000000
    291         -7.316299       -7.314787   1.000000   1.000000
    292         -7.315031       -7.313505   1.000000   1.000000
    293         -7.308702       -7.307368   1.000000   1.000000
    294         -7.308594       -7.307261   1.000000   1.000000
    295         -7.307022       -7.305315   1.000000   1.000000
    296         -7.298049       -7.297046   1.000000   1.000000
    297         -7.292589       -7.291731   1.000000   1.000000
    298         -7.288534       -7.287036   1.000000   1.000000
    299         -7.284907       -7.282094   1.000000   1.000000
    300         -7.284894       -7.282074   1.000000   1.000000
    301         -7.282226       -7.281187   1.000000   1.000000
    302         -7.282221       -7.281141   1.000000   1.000000
    303         -7.273962       -7.272542   1.000000   1.000000
    304         -7.273934       -7.271483   1.000000   1.000000
    305         -7.273853       -7.271464   1.000000   1.000000
    306         -7.260529       -7.258702   1.000000   1.000000
    307         -7.260529       -7.258679   1.000000   1.000000
    308         -7.258915       -7.255234   1.000000   1.000000
    309         -7.255843       -7.255070   1.000000   1.000000
    310         -7.255698       -7.254531   1.000000   1.000000
    311         -7.255522       -7.254411   1.000000   1.000000
    312         -7.241305       -7.239839   1.000000   1.000000
    313         -7.239572       -7.238143   1.000000   1.000000
    314         -7.239571       -7.237545   1.000000   1.000000
    315         -7.238836       -7.237533   1.000000   1.000000
    316         -7.220422       -7.219010   1.000000   1.000000
    317         -7.220335       -7.218924   1.000000   1.000000
    318         -7.208942       -7.208467   1.000000   1.000000
    319         -7.204517       -7.202774   1.000000   1.000000
    320         -7.204462       -7.202717   1.000000   1.000000
    321         -7.198732       -7.196849   1.000000   1.000000
    322         -7.198633       -7.196752   1.000000   1.000000
    323         -7.192775       -7.191592   1.000000   1.000000
    324         -7.178334       -7.175570   1.000000   1.000000
    325         -7.177487       -7.175283   1.000000   1.000000
    326         -7.177428       -7.175217   1.000000   1.000000
    327         -7.172195       -7.171748   1.000000   1.000000
    328         -7.171828       -7.169393   1.000000   1.000000
    329         -7.163589       -7.161829   1.000000   1.000000
    330         -7.159691       -7.155679   1.000000   1.000000
    331         -7.159546       -7.155612   1.000000   1.000000
    332         -7.156864       -7.152984   1.000000   1.000000
    333         -7.156828       -7.152875   1.000000   1.000000
    334         -7.146290       -7.144650   1.000000   1.000000
    335         -7.135763       -7.133482   1.000000   1.000000
    336         -7.135748       -7.133464   1.000000   1.000000
    337         -7.132742       -7.129915   1.000000   1.000000
    338         -7.132638       -7.129831   1.000000   1.000000
    339         -7.122337       -7.121643   1.000000   1.000000
    340         -7.122311       -7.121622   1.000000   1.000000
    341         -7.120290       -7.119971   1.000000   1.000000
    342         -7.118776       -7.118058   1.000000   1.000000
    343         -7.118601       -7.117887   1.000000   1.000000
    344         -7.115751       -7.115562   1.000000   1.000000
    345         -7.107985       -7.107806   1.000000   1.000000
    346         -7.101502       -7.100696   1.000000   1.000000
    347         -7.101469       -7.100657   1.000000   1.000000
    348         -7.097193       -7.095799   1.000000   1.000000
    349         -7.097111       -7.095717   1.000000   1.000000
    350         -7.081712       -7.080781   1.000000   1.000000
    351         -7.081597       -7.080669   1.000000   1.000000
    352         -7.077812       -7.076950   1.000000   1.000000
    353         -7.077110       -7.076505   1.000000   1.000000
    354         -7.055913       -7.055418   1.000000   1.000000
    355         -7.055912       -7.055416   1.000000   1.000000
    356         -7.051632       -7.051566   1.000000   1.000000
    357         -7.043842       -7.041737   1.000000   1.000000
    358         -7.043755       -7.039645   1.000000   1.000000
    359         -7.042699       -7.039575   1.000000   1.000000
    360         -7.032198       -7.030978   1.000000   1.000000
    361         -7.032117       -7.030919   1.000000   1.000000
    362         -7.026245       -7.023291   1.000000   1.000000
    363         -7.026215       -7.023270   1.000000   1.000000
    364         -7.013548       -7.009988   1.000000   1.000000
    365         -6.999378       -6.998479   1.000000   1.000000
    366         -6.995630       -6.995130   1.000000   1.000000
    367         -6.990763       -6.990281   1.000000   1.000000
    368         -6.990721       -6.990235   1.000000   1.000000
    369         -6.977491       -6.975325   1.000000   1.000000
    370         -6.977436       -6.975256   1.000000   1.000000
    371         -6.969295       -6.968706   1.000000   1.000000
    372         -6.963460       -6.962033   1.000000   1.000000
    373         -6.962959       -6.961086   1.000000   1.000000
    374         -6.962849       -6.961009   1.000000   1.000000
    375         -6.958198       -6.955816   1.000000   1.000000
    376         -6.958097       -6.955764   1.000000   1.000000
    377         -6.944027       -6.941797   1.000000   1.000000
    378         -6.936983       -6.935837   1.000000   1.000000
    379         -6.936871       -6.935724   1.000000   1.000000
    380         -6.933019       -6.931951   1.000000   1.000000
    381         -6.926967       -6.925685   1.000000   1.000000
    382         -6.926859       -6.924750   1.000000   1.000000
    383         -6.926851       -6.924695   1.000000   1.000000
    384         -6.912898       -6.911641   1.000000   1.000000
    385         -6.912739       -6.911483   1.000000   1.000000
    386         -6.901027       -6.900295   1.000000   1.000000
    387         -6.897528       -6.896759   1.000000   1.000000
    388         -6.897507       -6.896739   1.000000   1.000000
    389         -6.895684       -6.893101   1.000000   1.000000
    390         -6.894617       -6.892026   1.000000   1.000000
    391         -6.886217       -6.885517   1.000000   1.000000
    392         -6.886206       -6.885502   1.000000   1.000000
    393         -6.875224       -6.873477   1.000000   1.000000
    394         -6.873956       -6.873074   1.000000   1.000000
    395         -6.862454       -6.861166   1.000000   1.000000
    396         -6.862448       -6.861012   1.000000   1.000000
    397         -6.862185       -6.858855   1.000000   1.000000
    398         -6.862016       -6.858836   1.000000   1.000000
    399         -6.856995       -6.856867   1.000000   1.000000
    400         -6.853631       -6.850896   1.000000   1.000000
    401         -6.853505       -6.850770   1.000000   1.000000
    402         -6.840815       -6.840382   1.000000   1.000000
    403         -6.831624       -6.830693   1.000000   1.000000
    404         -6.831494       -6.830575   1.000000   1.000000
    405         -6.824122       -6.822653   1.000000   1.000000
    406         -6.817355       -6.816753   1.000000   1.000000
    407         -6.817223       -6.814561   1.000000   1.000000
    408         -6.817023       -6.814437   1.000000   1.000000
    409         -6.803053       -6.801612   1.000000   1.000000
    410         -6.802921       -6.801454   1.000000   1.000000
    411         -6.788096       -6.787572   1.000000   1.000000
    412         -6.788085       -6.787556   1.000000   1.000000
    413         -6.784339       -6.781775   1.000000   1.000000
    414         -6.782398       -6.779336   1.000000   1.000000
    415         -6.773333       -6.773232   1.000000   1.000000
    416         -6.772483       -6.771986   1.000000   1.000000
    417         -6.772357       -6.771859   1.000000   1.000000
    418         -6.770135       -6.769389   1.000000   1.000000
    419         -6.770105       -6.769361   1.000000   1.000000
    420         -6.759382       -6.758878   1.000000   1.000000
    421         -6.759346       -6.758835   1.000000   1.000000
    422         -6.746352       -6.745734   1.000000   1.000000
    423         -6.743823       -6.743223   1.000000   1.000000
    424         -6.743805       -6.743203   1.000000   1.000000
    425         -6.742832       -6.739851   1.000000   1.000000
    426         -6.734432       -6.734053   1.000000   1.000000
    427         -6.734293       -6.733912   1.000000   1.000000
    428         -6.723846       -6.723125   1.000000   1.000000
    429         -6.720992       -6.720794   1.000000   1.000000
    430         -6.720903       -6.720694   1.000000   1.000000
    431         -6.720887       -6.720083   1.000000   1.000000
    432         -6.710101       -6.709443   1.000000   1.000000
    433         -6.706413       -6.705685   1.000000   1.000000
    434         -6.706350       -6.704974   1.000000   1.000000
    435         -6.706255       -6.704903   1.000000   1.000000
    436         -6.701832       -6.701330   1.000000   1.000000
    437         -6.701784       -6.701277   1.000000   1.000000
    438         -6.693683       -6.693167   1.000000   1.000000
    439         -6.693633       -6.693126   1.000000   1.000000
    440         -6.689160       -6.689038   1.000000   1.000000
    441         -6.687574       -6.687261   1.000000   1.000000
    442         -6.687458       -6.687142   1.000000   1.000000
    443         -6.687013       -6.686934   1.000000   1.000000
    444         -6.684758       -6.684543   1.000000   1.000000
    445         -6.684700       -6.684491   1.000000   1.000000
    446         -6.683521       -6.683016   1.000000   1.000000
    447         -6.683373       -6.682910   1.000000   1.000000
    448         -6.678309       -6.678156   1.000000   1.000000
    449         -6.678301       -6.678142   1.000000   1.000000
    450         -6.671194       -6.671007   1.000000   1.000000
    451         -6.668531       -6.668175   1.000000   1.000000
    452         -6.668509       -6.668146   1.000000   1.000000
    453         -6.663709       -6.663264   1.000000   1.000000
    454         -6.663584       -6.663142   1.000000   1.000000
    455         -6.661554       -6.661504   1.000000   1.000000
    456         -6.658047       -6.657587   1.000000   1.000000
    457         -6.657994       -6.657539   1.000000   1.000000
    458         -6.653058       -6.652273   1.000000   1.000000
    459         -6.645527       -6.645403   1.000000   1.000000
    460         -6.645407       -6.645283   1.000000   1.000000
    461         -6.643924       -6.643799   1.000000   1.000000
    462         -6.642219       -6.642035   1.000000   1.000000
    463         -6.642215       -6.642032   1.000000   1.000000
    464         -6.637744       -6.637005   1.000000   1.000000