       N       E                     dE             d eps       ncg     rms          ort
SDA:   1    -0.122200261869E+04   -0.12220E+04   -0.12459E-06  1056   0.415E-06 0.000E+00
DMP:   2    -0.122200261880E+04   -0.10329E-06   -0.10069E-06  1056   0.210E-06 0.284E-06
DMP:   3    -0.122200261887E+04   -0.77314E-07   -0.51257E-07  1056   0.859E-07 0.192E-06
DMP:   4    -0.122200261891E+04   -0.37515E-07   -0.23751E-07  1056   0.388E-07 0.915E-07
   1 F= -.12220026E+04 E0= -.12220026E+04  d E =-.122200E+04  mag=     2.0000
       N       E                     dE             d eps       ncg     rms          ort
SDA:   1    -0.122200030517E+04    0.23137E-02   -0.15510E-02  1056   0.517E-02 0.000E+00
DMP:   2    -0.122200155720E+04   -0.12520E-02   -0.10707E-02  1056   0.217E-02 0.318E-02
DMP:   3    -0.122200233146E+04   -0.77426E-03   -0.40190E-03  1056   0.636E-03 0.159E-02
DMP:   4    -0.122200259304E+04   -0.26158E-03   -0.10528E-03  1056   0.172E-03 0.404E-03
DMP:   5    -0.122200264916E+04   -0.56125E-04   -0.22182E-04  1056   0.637E-04 0.232E-04
DMP:   6    -0.122200265740E+04   -0.82332E-05   -0.98137E-05  1056   0.411E-04-0.189E-04
DMP:   7    -0.122200266300E+04   -0.56059E-05   -0.88730E-05  1056   0.274E-04 0.491E-05
DMP:   8    -0.122200266944E+04   -0.64320E-05   -0.59130E-05  1056   0.137E-04 0.135E-04
DMP:   9    -0.122200267371E+04   -0.42716E-05   -0.28650E-05  1056   0.562E-05 0.890E-05
DMP:  10    -0.122200267570E+04   -0.19977E-05   -0.11369E-05  1056   0.211E-05 0.381E-05
DMP:  11    -0.122200267646E+04   -0.75791E-06   -0.41794E-06  1056   0.836E-06 0.126E-05
   2 F= -.12220027E+04 E0= -.12220027E+04  d E =-.575521E-04  mag=     2.0000
