
                                 *****************
                                 * O   R   C   A *
                                 *****************

                                            #,                                       
                                            ###                                      
                                            ####                                     
                                            #####                                    
                                            ######                                   
                                           ########,                                 
                                     ,,################,,,,,                         
                               ,,#################################,,                 
                          ,,##########################################,,             
                       ,#########################################, ''#####,          
                    ,#############################################,,   '####,        
                  ,##################################################,,,,####,       
                ,###########''''           ''''###############################       
              ,#####''   ,,,,##########,,,,          '''####'''          '####       
            ,##' ,,,,###########################,,,                        '##       
           ' ,,###''''                  '''############,,,                           
         ,,##''                                '''############,,,,        ,,,,,,###''
      ,#''                                            '''#######################'''  
     '                                                          ''''####''''         
             ,#######,   #######,   ,#######,      ##                                
            ,#'     '#,  ##    ##  ,#'     '#,    #''#        ######   ,####,        
            ##       ##  ##   ,#'  ##            #'  '#       #        #'  '#        
            ##       ##  #######   ##           ,######,      #####,   #    #        
            '#,     ,#'  ##    ##  '#,     ,#' ,#      #,         ##   #,  ,#        
             '#######'   ##     ##  '#######'  #'      '#     #####' # '####'        



                  #######################################################
                  #                        -***-                        #
                  #          Department of theory and spectroscopy      #
                  #    Directorship and core code : Frank Neese         #
                  #        Max Planck Institute fuer Kohlenforschung    #
                  #                Kaiser Wilhelm Platz 1               #
                  #                 D-45470 Muelheim/Ruhr               #
                  #                      Germany                        #
                  #                                                     #
                  #                  All rights reserved                #
                  #                        -***-                        #
                  #######################################################


                         Program Version 5.0.1 -  RELEASE  -


 With contributions from (in alphabetic order):
   Daniel Aravena         : Magnetic Suceptibility
   Michael Atanasov       : Ab Initio Ligand Field Theory (pilot matlab implementation)
   Alexander A. Auer      : GIAO ZORA, VPT2 properties, NMR spectrum
   Ute Becker             : Parallelization
   Giovanni Bistoni       : ED, misc. LED, open-shell LED, HFLD
   Martin Brehm           : Molecular dynamics
   Dmytro Bykov           : SCF Hessian
   Vijay G. Chilkuri      : MRCI spin determinant printing, contributions to CSF-ICE
   Dipayan Datta          : RHF DLPNO-CCSD density
   Achintya Kumar Dutta   : EOM-CC, STEOM-CC
   Dmitry Ganyushin       : Spin-Orbit,Spin-Spin,Magnetic field MRCI
   Miquel Garcia          : C-PCM and meta-GGA Hessian, CC/C-PCM, Gaussian charge scheme
   Yang Guo               : DLPNO-NEVPT2, F12-NEVPT2, CIM, IAO-localization
   Andreas Hansen         : Spin unrestricted coupled pair/coupled cluster methods
   Benjamin Helmich-Paris : MC-RPA, TRAH-SCF, COSX integrals
   Lee Huntington         : MR-EOM, pCC
   Robert Izsak           : Overlap fitted RIJCOSX, COSX-SCS-MP3, EOM
   Marcus Kettner         : VPT2
   Christian Kollmar      : KDIIS, OOCD, Brueckner-CCSD(T), CCSD density, CASPT2, CASPT2-K
   Simone Kossmann        : Meta GGA functionals, TD-DFT gradient, OOMP2, MP2 Hessian
   Martin Krupicka        : Initial AUTO-CI
   Lucas Lang             : DCDCAS
   Marvin Lechner         : AUTO-CI (C++ implementation), FIC-MRCC
   Dagmar Lenk            : GEPOL surface, SMD
   Dimitrios Liakos       : Extrapolation schemes; Compound Job, initial MDCI parallelization
   Dimitrios Manganas     : Further ROCIS development; embedding schemes
   Dimitrios Pantazis     : SARC Basis sets
   Anastasios Papadopoulos: AUTO-CI, single reference methods and gradients
   Taras Petrenko         : DFT Hessian,TD-DFT gradient, ASA, ECA, R-Raman, ABS, FL, XAS/XES, NRVS
   Peter Pinski           : DLPNO-MP2, DLPNO-MP2 Gradient
   Christoph Reimann      : Effective Core Potentials
   Marius Retegan         : Local ZFS, SOC
   Christoph Riplinger    : Optimizer, TS searches, QM/MM, DLPNO-CCSD(T), (RO)-DLPNO pert. Triples
   Tobias Risthaus        : Range-separated hybrids, TD-DFT gradient, RPA, STAB
   Michael Roemelt        : Original ROCIS implementation
   Masaaki Saitow         : Open-shell DLPNO-CCSD energy and density
   Barbara Sandhoefer     : DKH picture change effects
   Avijit Sen             : IP-ROCIS
   Kantharuban Sivalingam : CASSCF convergence, NEVPT2, FIC-MRCI
   Bernardo de Souza      : ESD, SOC TD-DFT
   Georgi Stoychev        : AutoAux, RI-MP2 NMR, DLPNO-MP2 response
   Willem Van den Heuvel  : Paramagnetic NMR
   Boris Wezisla          : Elementary symmetry handling
   Frank Wennmohs         : Technical directorship


 We gratefully acknowledge several colleagues who have allowed us to
 interface, adapt or use parts of their codes:
   Stefan Grimme, W. Hujo, H. Kruse, P. Pracht,  : VdW corrections, initial TS optimization,
                  C. Bannwarth, S. Ehlert          DFT functionals, gCP, sTDA/sTD-DF
   Ed Valeev, F. Pavosevic, A. Kumar             : LibInt (2-el integral package), F12 methods
   Garnet Chan, S. Sharma, J. Yang, R. Olivares  : DMRG
   Ulf Ekstrom                                   : XCFun DFT Library
   Mihaly Kallay                                 : mrcc  (arbitrary order and MRCC methods)
   Jiri Pittner, Ondrej Demel                    : Mk-CCSD
   Frank Weinhold                                : gennbo (NPA and NBO analysis)
   Christopher J. Cramer and Donald G. Truhlar   : smd solvation model
   Lars Goerigk                                  : TD-DFT with DH, B97 family of functionals
   V. Asgeirsson, H. Jonsson                     : NEB implementation
   FAccTs GmbH                                   : IRC, NEB, NEB-TS, DLPNO-Multilevel, CI-OPT
                                                   MM, QMMM, 2- and 3-layer-ONIOM, Crystal-QMMM,
                                                   LR-CPCM, SF, NACMEs, symmetry and pop. for TD-DFT,
                                                   nearIR, NL-DFT gradient (VV10), updates on ESD,
                                                   ML-optimized integration grids
   S Lehtola, MJT Oliveira, MAL Marques          : LibXC Library
   Liviu Ungur et al                             : ANISO software


 Your calculation uses the libint2 library for the computation of 2-el integrals
 For citations please refer to: http://libint.valeyev.net

 Your ORCA version has been built with support for libXC version: 5.1.0
 For citations please refer to: https://tddft.org/programs/libxc/

 This ORCA versions uses:
   CBLAS   interface :  Fast vector & matrix operations
   LAPACKE interface :  Fast linear algebra routines
   SCALAPACK package :  Parallel linear algebra routines
   Shared memory     :  Shared parallel matrices
   BLAS/LAPACK       :  OpenBLAS 0.3.15  USE64BITINT DYNAMIC_ARCH NO_AFFINITY SkylakeX SINGLE_THREADED
        Core in use  :  SkylakeX
   Copyright (c) 2011-2014, The OpenBLAS Project


================================================================================

cite the ECPs for Mo [Def2-ECP] as follows:
Ce-Yb(ecp-28): M. Dolg, H. Stoll, H.Preuss, J. Chem. Phys., 1989, 90, 1730-1734.
Y-Cd(ecp-28), Hf-Hg(ecp-46): D. Andrae,U. Haeussermann, M. Dolg, H. Stoll, H. Preuss, Theor. Chim. Acta, 1990, 77, 123-141.
In-Sb(ecp-28), Tl-Bi(ecp-46): B. Metz, H. Stoll, M. Dolg, J. Chem. Phys., 2000, 113, 2563-2569.
Te-Xe(ecp-28), Po-Rn(ecp-46): K. A. Peterson, D. Figgen, E. Goll, H. Stoll, M. Dolg, J. Chem. Phys., 2003, 119, 11113-11123.
Rb(ecp-28), Cs(ecp-46): T. Leininger, A. Nicklass, W. Kuechle, H. Stoll, M. Dolg, A. Bergner, Chem. Phys. Lett., 1996, 255, 274-280.
Sr(ecp-28), Ba(ecp-46): M. Kaupp, P. V. Schleyer, H. Stoll and H. Preuss, J. Chem. Phys., 1991, 94, 1360-1366.
La(ecp-46): M. Dolg, H. Stoll, A. Savin, H. Preuss, Theor. Chim. Acta, 1989, 75, 173-194.
Lu(ecp-28): X. Cao, M. Dolg, J. Chem. Phys., 2001, 115, 7348-7355.

ECP parameters for Mo [Def2-ECP] have been obtained from:
TURBOMOLE (7.0.2)

----- Orbital basis set information -----
Your calculation utilizes the basis: def2-TZVP
   F. Weigend and R. Ahlrichs, Phys. Chem. Chem. Phys. 7, 3297 (2005).

----- AuxJ basis set information -----
Your calculation utilizes the auxiliary basis: def2/J
   F. Weigend, Phys. Chem. Chem. Phys. 8, 1057 (2006).

================================================================================
                                        WARNINGS
                       Please study these warnings very carefully!
================================================================================


WARNING: your system is open-shell and RHF/RKS was chosen
  ===> : WILL SWITCH to UHF/UKS


INFO   : the flag for use of the SHARK integral package has been found!

================================================================================
                                       INPUT FILE
================================================================================
NAME = zfs.in
|  1> 
|  2> # Use EPR-II is a special basis set for epr, autoaux creates a large auxiliary basis set
|  3> !PBE0 def2-TZVP EXTREMESCF #MORead #EPR-II AUTOAUX RIJCOSX
|  4> 
|  5> #%moinp "zfs.gbw" 
|  6> 
|  7> # geometry
|  8> * xyz +40 3
|  9>     H           8.129836006       8.434052868      10.060545275 Z=0.5
| 10>     H           3.253995161      10.384870215      19.247183064 Z=0.5
| 11>     H           4.123386804       8.879039345      19.247182943 Z=0.5
| 12>     H           2.382440182       8.877790598      19.247583566 Z=0.5
| 13>     H           3.244324746       9.375399902      12.643786581 Z=0.5
| 14>     H           2.386345439       8.880045300      14.026994109 Z=0.5
| 15>     H           4.875441617       6.552169384      12.637144533 Z=0.5
| 16>     H           5.744100049       6.053619063      14.032460399 Z=0.5
| 17>     H           4.009354292       6.061171607      14.028786077 Z=0.5
| 18>     H           8.977011281      14.556757025      16.642696922 Z=0.5
| 19>     H           8.996803433      14.574819764      11.428510982 Z=0.5
| 20>     H           7.250561619      14.581077452      11.431802928 Z=0.5
| 21>     H           8.122511983      14.077049308      10.060545275 Z=0.5
| 22>     H          10.597855488      11.749372510      16.642696923 Z=0.5
| 23>     H           0.756633812      11.695048742      14.028786077 Z=0.5
| 24>     H          10.623394349      11.757481652      11.428510982 Z=0.5
| 25>     H           9.755167066      11.249207754      10.060545275 Z=0.5
| 26>     H          12.234616890       8.940803608      16.634535067 Z=0.5
| 27>     H          11.368697962       7.440988399      16.634535050 Z=0.5
| 28>     H          11.375984551       8.436658418      15.240551601 Z=0.5
| 29>     H           4.017350985      14.556756777      16.642696757 Z=0.5
| 30>     H           5.743800597      14.581077773      11.431803126 Z=0.5
| 31>     H           3.997558840      14.574819509      11.428510825 Z=0.5
| 32>     H           4.871850492      14.077049308      10.060545275 Z=0.5
| 33>     H           7.365623740      11.754832552      21.858377007 Z=0.5
| 34>     H           5.628738236      11.754832238      21.858376798 Z=0.5
| 35>     H           6.497180652      10.250645156      21.858377029 Z=0.5
| 36>     H           6.497181118      11.253436531      10.116159569 Z=0.5
| 37>     H           8.118024824       7.454180901      16.642696906 Z=0.5
| 38>     H           9.755692619      10.242062581      11.431803148 Z=0.5
| 39>     H           9.002312238       8.937170060      11.431803127 Z=0.5
| 40>     H           1.617466110      13.201159034      14.032460509 Z=0.5
| 41>     H           7.250260899       6.053618933      14.032460486 Z=0.5
| 42>     H          10.623815057      14.505532600      14.032460344 Z=0.5
| 43>     H          11.379467491      12.199603640      12.637144533 Z=0.5
| 44>     H          11.376895770      13.201159031      14.032460508 Z=0.5
| 45>     H          12.237727683      11.695048831      14.028786018 Z=0.5
| 46>     H           7.363099853      17.378518625      16.634535067 Z=0.5
| 47>     H           5.631262436      17.378518477      16.634534968 Z=0.5
| 48>     H           6.497181208      16.886993690      15.240551601 Z=0.5
| 49>     H           6.497180870      16.004729721      19.247583627 Z=0.5
| 50>     H           7.366572417      14.496401386      19.247182836 Z=0.5
| 51>     H           5.627788812      14.496401070      19.247183042 Z=0.5
| 52>     H           6.497180867      16.000220319      14.026994169 Z=0.5
| 53>     H           6.497180485      15.009511161      12.643786581 Z=0.5
| 54>     H           8.111514180      13.174266729      19.214533157 Z=0.5
| 55>     H           1.614893929      12.199603640      12.637144533 Z=0.5
| 56>     H           8.967834538      11.691075677      19.214532916 Z=0.5
| 57>     H          10.611920792       8.877790709      19.247583494 Z=0.5
| 58>     H           8.870974203       8.879039193      19.247183042 Z=0.5
| 59>     H           9.750036136       9.375399902      12.643786581 Z=0.5
| 60>     H          10.608015534       8.880045409      14.026994037 Z=0.5
| 61>     H           3.244460118      16.004090265      14.028786138 Z=0.5
| 62>     H           3.236632655      15.008537773      12.637144533 Z=0.5
| 63>     H           2.370546386      14.505532391      14.032460487 Z=0.5
| 64>     H           4.882847473      13.174266738      19.214533161 Z=0.5
| 65>     H           4.026526453      11.691075375      19.214533137 Z=0.5
| 66>     H           7.353501108       8.894968602      19.214532974 Z=0.5
| 67>     H           5.640859589       8.894968373      19.214533135 Z=0.5
| 68>     H           8.118919221       6.552169384      12.637144533 Z=0.5
| 69>     H           8.985006620       6.061171695      14.028786018 Z=0.5
| 70>     H           9.740366447      10.384870216      19.247183064 Z=0.5
| 71>     H           8.123771531       7.428009030      11.428510966 Z=0.5
| 72>     H           9.749901658      16.004090267      14.028786139 Z=0.5
| 73>     H           2.396506609      11.749372343      16.642696811 Z=0.5
| 74>     H           2.370967750      11.757481480      11.428510876 Z=0.5
| 75>     H           3.238668891      10.242062586      11.431803147 Z=0.5
| 76>     H           3.239195170      11.249207754      10.060545275 Z=0.5
| 77>     H           4.876336379       7.454180902      16.642696905 Z=0.5
| 78>     H           3.992049248       8.937169907      11.431803031 Z=0.5
| 79>     H           4.870589666       7.428009030      11.428510966 Z=0.5
| 80>     H           4.864525601       8.434052868      10.060545275 Z=0.5
| 81>     H           0.759744468       8.940803541      16.634535022 Z=0.5
| 82>     H           1.625663096       7.440988400      16.634535049 Z=0.5
| 83>     H           1.618376862       8.436658418      15.240551601 Z=0.5
| 84>     H           9.757728613      15.008537773      12.637144533 Z=0.5
| 85>     Mo          6.497181118      11.253436531      14.279865218
| 86>     O           8.121275957      14.070846353      11.117526351
| 87>     O           8.100925290      12.179359485      18.857746876
| 88>     O           8.093105642      12.174844809      13.768849413
| 89>     O           9.737338435       9.382730924      13.700684885
| 90>     O           4.893435440      12.179359485      18.857746876
| 91>     O           4.901255087      12.174844809      13.768849413
| 92>     O           6.497180484      15.000096508      18.919009269
| 93>     O           6.497180484      14.994849118      13.700684885
| 94>     O           6.497180248       9.410621347      13.768849413
| 95>     O           8.110622825      14.052827804      16.307025381
| 96>     O           9.728246048      11.251022194      16.307025381
| 97>     O           4.883739649      14.052827804      16.307025381
| 98>     O           8.114804147       8.456459931      16.307025381
| 99>     O           3.266116188      11.251022194      16.307025381
|100>     O           4.879557463       8.456459931      16.307025381
|101>     O           3.257022448       9.382730924      13.700684885
|102>     O           6.497181207      16.874705274      16.297480168
|103>     O           6.497180247       9.401591996      18.857746876
|104>     O           1.622936399      12.199789640      13.694113919
|105>     O           4.879623934       6.559041366      13.694113919
|106>     O           9.749177136      11.251238801      11.117526351
|107>     O           6.497181118      11.253436531      11.173159569
|108>     O           9.741882808       9.380107228      18.919009269
|109>     O          11.365342470       8.442802626      16.297480168
|110>     O           3.245185100      11.251238801      11.117526351
|111>     O           8.125082103       8.438224775      11.117526351
|112>     O           4.873086518      14.070846353      11.117526351
|113>     O           3.252478074       9.380107228      18.919009269
|114>     O           1.629018944       8.442802626      16.297480168
|115>     O           9.753868459      15.001479790      13.694113919
|116>     O          11.371425021      12.199789640      13.694113919
|117>     O           3.240492808      15.001479790      13.694113919
|118>     O           6.497181118      11.253436531      21.524223683
|119>     O           8.114736905       6.559041366      13.694113919
|120>     O           4.869279506       8.438224775      11.117526351
|121>     Zn          8.140403048      14.173132795      14.352084892
|122>     Zn          3.147038892      11.216660122      14.352084892
|123>     Zn          8.204101220       8.370517013      14.352084892
|124>     Zn          6.497181118      11.253436531      19.553847404
|125>     Zn          4.853959436      14.173132795      14.352084892
|126>     Zn          9.847323341      11.216660122      14.352084892
|127>     Zn          3.235617146       9.370372568      16.955918284
|128>     Zn          6.497180485      15.019565829      16.955918284
|129>     Zn          6.497180246       9.383327966      16.902883173
|130>     Zn          4.842781417      12.208604597      11.622547336
|131>     Zn          4.877618325      12.188491500      16.902883173
|132>     Zn          9.758743735       9.370372568      16.955918284
|133>     Zn          8.151579315      12.208604597      11.622547336
|134>     Zn          8.116742406      12.188491500      16.902883173
|135>     Zn          6.497180245       9.343101772      11.622547336
|136>     Zn          4.790260382       8.370517013      14.352084892
|137> *
|138> 
|139> # Parallelization
|140> %PAL NPROCS 32 END
|141> 
|142> # ZFS calculation
|143> %EPRNMR DTENSOR SSANDSO
|144>     DSS     direct
|145>     DSOC    cvw
|146>     PrintLevel 4
|147> END
|148> 
|149> 
|150> #%basis
|151> #newgto Mo "SARC-DKH-TZVP" end
|152> #end
|153> 
|154>                          ****END OF INPUT****
================================================================================

                       ****************************
                       * Single Point Calculation *
                       ****************************

---------------------------------
CARTESIAN COORDINATES (ANGSTROEM)
---------------------------------
  H      8.129836    8.434053   10.060545
  H      3.253995   10.384870   19.247183
  H      4.123387    8.879039   19.247183
  H      2.382440    8.877791   19.247584
  H      3.244325    9.375400   12.643787
  H      2.386345    8.880045   14.026994
  H      4.875442    6.552169   12.637145
  H      5.744100    6.053619   14.032460
  H      4.009354    6.061172   14.028786
  H      8.977011   14.556757   16.642697
  H      8.996803   14.574820   11.428511
  H      7.250562   14.581077   11.431803
  H      8.122512   14.077049   10.060545
  H     10.597855   11.749373   16.642697
  H      0.756634   11.695049   14.028786
  H     10.623394   11.757482   11.428511
  H      9.755167   11.249208   10.060545
  H     12.234617    8.940804   16.634535
  H     11.368698    7.440988   16.634535
  H     11.375985    8.436658   15.240552
  H      4.017351   14.556757   16.642697
  H      5.743801   14.581078   11.431803
  H      3.997559   14.574820   11.428511
  H      4.871850   14.077049   10.060545
  H      7.365624   11.754833   21.858377
  H      5.628738   11.754832   21.858377
  H      6.497181   10.250645   21.858377
  H      6.497181   11.253437   10.116160
  H      8.118025    7.454181   16.642697
  H      9.755693   10.242063   11.431803
  H      9.002312    8.937170   11.431803
  H      1.617466   13.201159   14.032461
  H      7.250261    6.053619   14.032460
  H     10.623815   14.505533   14.032460
  H     11.379467   12.199604   12.637145
  H     11.376896   13.201159   14.032461
  H     12.237728   11.695049   14.028786
  H      7.363100   17.378519   16.634535
  H      5.631262   17.378518   16.634535
  H      6.497181   16.886994   15.240552
  H      6.497181   16.004730   19.247584
  H      7.366572   14.496401   19.247183
  H      5.627789   14.496401   19.247183
  H      6.497181   16.000220   14.026994
  H      6.497180   15.009511   12.643787
  H      8.111514   13.174267   19.214533
  H      1.614894   12.199604   12.637145
  H      8.967835   11.691076   19.214533
  H     10.611921    8.877791   19.247583
  H      8.870974    8.879039   19.247183
  H      9.750036    9.375400   12.643787
  H     10.608016    8.880045   14.026994
  H      3.244460   16.004090   14.028786
  H      3.236633   15.008538   12.637145
  H      2.370546   14.505532   14.032460
  H      4.882847   13.174267   19.214533
  H      4.026526   11.691075   19.214533
  H      7.353501    8.894969   19.214533
  H      5.640860    8.894968   19.214533
  H      8.118919    6.552169   12.637145
  H      8.985007    6.061172   14.028786
  H      9.740366   10.384870   19.247183
  H      8.123772    7.428009   11.428511
  H      9.749902   16.004090   14.028786
  H      2.396507   11.749372   16.642697
  H      2.370968   11.757481   11.428511
  H      3.238669   10.242063   11.431803
  H      3.239195   11.249208   10.060545
  H      4.876336    7.454181   16.642697
  H      3.992049    8.937170   11.431803
  H      4.870590    7.428009   11.428511
  H      4.864526    8.434053   10.060545
  H      0.759744    8.940804   16.634535
  H      1.625663    7.440988   16.634535
  H      1.618377    8.436658   15.240552
  H      9.757729   15.008538   12.637145
  Mo     6.497181   11.253437   14.279865
  O      8.121276   14.070846   11.117526
  O      8.100925   12.179359   18.857747
  O      8.093106   12.174845   13.768849
  O      9.737338    9.382731   13.700685
  O      4.893435   12.179359   18.857747
  O      4.901255   12.174845   13.768849
  O      6.497180   15.000097   18.919009
  O      6.497180   14.994849   13.700685
  O      6.497180    9.410621   13.768849
  O      8.110623   14.052828   16.307025
  O      9.728246   11.251022   16.307025
  O      4.883740   14.052828   16.307025
  O      8.114804    8.456460   16.307025
  O      3.266116   11.251022   16.307025
  O      4.879557    8.456460   16.307025
  O      3.257022    9.382731   13.700685
  O      6.497181   16.874705   16.297480
  O      6.497180    9.401592   18.857747
  O      1.622936   12.199790   13.694114
  O      4.879624    6.559041   13.694114
  O      9.749177   11.251239   11.117526
  O      6.497181   11.253437   11.173160
  O      9.741883    9.380107   18.919009
  O     11.365342    8.442803   16.297480
  O      3.245185   11.251239   11.117526
  O      8.125082    8.438225   11.117526
  O      4.873087   14.070846   11.117526
  O      3.252478    9.380107   18.919009
  O      1.629019    8.442803   16.297480
  O      9.753868   15.001480   13.694114
  O     11.371425   12.199790   13.694114
  O      3.240493   15.001480   13.694114
  O      6.497181   11.253437   21.524224
  O      8.114737    6.559041   13.694114
  O      4.869280    8.438225   11.117526
  Zn     8.140403   14.173133   14.352085
  Zn     3.147039   11.216660   14.352085
  Zn     8.204101    8.370517   14.352085
  Zn     6.497181   11.253437   19.553847
  Zn     4.853959   14.173133   14.352085
  Zn     9.847323   11.216660   14.352085
  Zn     3.235617    9.370373   16.955918
  Zn     6.497180   15.019566   16.955918
  Zn     6.497180    9.383328   16.902883
  Zn     4.842781   12.208605   11.622547
  Zn     4.877618   12.188491   16.902883
  Zn     9.758744    9.370373   16.955918
  Zn     8.151579   12.208605   11.622547
  Zn     8.116742   12.188491   16.902883
  Zn     6.497180    9.343102   11.622547
  Zn     4.790260    8.370517   14.352085

----------------------------
CARTESIAN COORDINATES (A.U.)
----------------------------
  NO LB      ZA    FRAG     MASS         X           Y           Z
   0 H     0.5000    0     1.008   15.363164   15.938050   19.011675
   1 H     0.5000    0     1.008    6.149160   19.624561   36.371905
   2 H     0.5000    0     1.008    7.792072   16.778953   36.371905
   3 H     0.5000    0     1.008    4.502159   16.776593   36.372662
   4 H     0.5000    0     1.008    6.130885   17.716938   23.893294
   5 H     0.5000    0     1.008    4.509539   16.780854   26.507177
   6 H     0.5000    0     1.008    9.213249   12.381806   23.880742
   7 H     0.5000    0     1.008   10.854776   11.439682   26.517507
   8 H     0.5000    0     1.008    7.576582   11.453954   26.510564
   9 H     0.5000    0     1.008   16.964093   27.508284   31.450139
  10 H     0.5000    0     1.008   17.001495   27.542418   21.596756
  11 H     0.5000    0     1.008   13.701576   27.554243   21.602977
  12 H     0.5000    0     1.008   15.349323   26.601768   19.011675
  13 H     0.5000    0     1.008   20.027044   22.203096   31.450139
  14 H     0.5000    0     1.008    1.429831   22.100439   26.510564
  15 H     0.5000    0     1.008   20.075306   22.218420   21.596756
  16 H     0.5000    0     1.008   18.434594   21.257922   19.011675
  17 H     0.5000    0     1.008   23.120075   16.895670   31.434716
  18 H     0.5000    0     1.008   21.483726   14.061430   31.434716
  19 H     0.5000    0     1.008   21.497495   15.942974   28.800469
  20 H     0.5000    0     1.008    7.591693   27.508284   31.450139
  21 H     0.5000    0     1.008   10.854210   27.554244   21.602977
  22 H     0.5000    0     1.008    7.554291   27.542417   21.596756
  23 H     0.5000    0     1.008    9.206463   26.601768   19.011675
  24 H     0.5000    0     1.008   13.919012   22.213414   41.306346
  25 H     0.5000    0     1.008   10.636774   22.213414   41.306346
  26 H     0.5000    0     1.008   12.277892   19.370912   41.306346
  27 H     0.5000    0     1.008   12.277893   21.265913   19.116771
  28 H     0.5000    0     1.008   15.340844   14.086360   31.450139
  29 H     0.5000    0     1.008   18.435587   19.354693   21.602977
  30 H     0.5000    0     1.008   17.011905   16.888804   21.602977
  31 H     0.5000    0     1.008    3.056568   24.946575   26.517507
  32 H     0.5000    0     1.008   13.701007   11.439682   26.517507
  33 H     0.5000    0     1.008   20.076101   27.411484   26.517507
  34 H     0.5000    0     1.008   21.504077   23.053910   23.880742
  35 H     0.5000    0     1.008   21.499217   24.946575   26.517507
  36 H     0.5000    0     1.008   23.125954   22.100439   26.510564
  37 H     0.5000    0     1.008   13.914242   32.840641   31.434716
  38 H     0.5000    0     1.008   10.641544   32.840641   31.434715
  39 H     0.5000    0     1.008   12.277893   31.911793   28.800469
  40 H     0.5000    0     1.008   12.277892   30.244556   36.372662
  41 H     0.5000    0     1.008   13.920804   27.394229   36.371904
  42 H     0.5000    0     1.008   10.634980   27.394228   36.371905
  43 H     0.5000    0     1.008   12.277892   30.236034   26.507177
  44 H     0.5000    0     1.008   12.277892   28.363865   23.893294
  45 H     0.5000    0     1.008   15.328540   24.895756   36.310205
  46 H     0.5000    0     1.008    3.051707   23.053910   23.880742
  47 H     0.5000    0     1.008   16.946751   22.092931   36.310205
  48 H     0.5000    0     1.008   20.053624   16.776593   36.372662
  49 H     0.5000    0     1.008   16.763712   16.778952   36.371905
  50 H     0.5000    0     1.008   18.424898   17.716938   23.893294
  51 H     0.5000    0     1.008   20.046244   16.780854   26.507177
  52 H     0.5000    0     1.008    6.131141   30.243348   26.510564
  53 H     0.5000    0     1.008    6.116349   28.362026   23.880742
  54 H     0.5000    0     1.008    4.479683   27.411484   26.517507
  55 H     0.5000    0     1.008    9.227244   24.895756   36.310205
  56 H     0.5000    0     1.008    7.609032   22.092931   36.310205
  57 H     0.5000    0     1.008   13.896103   16.809055   36.310205
  58 H     0.5000    0     1.008   10.659680   16.809054   36.310205
  59 H     0.5000    0     1.008   15.342534   12.381806   23.880742
  60 H     0.5000    0     1.008   16.979202   11.453955   26.510564
  61 H     0.5000    0     1.008   18.406625   19.624561   36.371905
  62 H     0.5000    0     1.008   15.351703   14.036903   21.596756
  63 H     0.5000    0     1.008   18.424644   30.243348   26.510564
  64 H     0.5000    0     1.008    4.528741   22.203096   31.450139
  65 H     0.5000    0     1.008    4.480480   22.218420   21.596756
  66 H     0.5000    0     1.008    6.120197   19.354693   21.602977
  67 H     0.5000    0     1.008    6.121192   21.257922   19.011675
  68 H     0.5000    0     1.008    9.214940   14.086360   31.450139
  69 H     0.5000    0     1.008    7.543880   16.888804   21.602977
  70 H     0.5000    0     1.008    9.204081   14.036903   21.596756
  71 H     0.5000    0     1.008    9.192621   15.938050   19.011675
  72 H     0.5000    0     1.008    1.435709   16.895670   31.434716
  73 H     0.5000    0     1.008    3.072058   14.061430   31.434716
  74 H     0.5000    0     1.008    3.058289   15.942974   28.800469
  75 H     0.5000    0     1.008   18.439435   28.362026   23.880742
  76 Mo   14.0000*   0    95.940   12.277893   21.265913   26.985034
  77 O     8.0000    0    15.999   15.346987   26.590046   21.009080
  78 O     8.0000    0    15.999   15.308530   23.015654   35.635977
  79 O     8.0000    0    15.999   15.293753   23.007122   26.019355
  80 O     8.0000    0    15.999   18.400903   17.730792   25.890542
  81 O     8.0000    0    15.999    9.247253   23.015654   35.635977
  82 O     8.0000    0    15.999    9.262030   23.007122   26.019355
  83 O     8.0000    0    15.999   12.277892   28.346074   35.751746
  84 O     8.0000    0    15.999   12.277892   28.336158   25.890542
  85 O     8.0000    0    15.999   12.277891   17.783497   26.019355
  86 O     8.0000    0    15.999   15.326856   26.555996   30.815812
  87 O     8.0000    0    15.999   18.383721   21.261351   30.815812
  88 O     8.0000    0    15.999    9.228930   26.555996   30.815812
  89 O     8.0000    0    15.999   15.334757   15.980393   30.815812
  90 O     8.0000    0    15.999    6.172065   21.261351   30.815812
  91 O     8.0000    0    15.999    9.221027   15.980393   30.815812
  92 O     8.0000    0    15.999    6.154880   17.730792   25.890542
  93 O     8.0000    0    15.999   12.277893   31.888572   30.797774
  94 O     8.0000    0    15.999   12.277891   17.766434   35.635977
  95 O     8.0000    0    15.999    3.066905   23.054261   25.878125
  96 O     8.0000    0    15.999    9.221153   12.394792   25.878125
  97 O     8.0000    0    15.999   18.423275   21.261760   21.009080
  98 O     8.0000    0    15.999   12.277893   21.265913   21.114212
  99 O     8.0000    0    15.999   18.409491   17.725834   35.751746
 100 O     8.0000    0    15.999   21.477385   15.954585   30.797774
 101 O     8.0000    0    15.999    6.132511   21.261760   21.009080
 102 O     8.0000    0    15.999   15.354180   15.945934   21.009080
 103 O     8.0000    0    15.999    9.208799   26.590046   21.009080
 104 O     8.0000    0    15.999    6.146293   17.725834   35.751746
 105 O     8.0000    0    15.999    3.078400   15.954585   30.797774
 106 O     8.0000    0    15.999   18.432140   28.348688   25.878125
 107 O     8.0000    0    15.999   21.488879   23.054261   25.878125
 108 O     8.0000    0    15.999    6.123644   28.348688   25.878125
 109 O     8.0000    0    15.999   12.277893   21.265913   40.674888
 110 O     8.0000    0    15.999   15.334630   12.394792   25.878125
 111 O     8.0000    0    15.999    9.201605   15.945934   21.009080
 112 Zn   30.0000    0    65.380   15.383132   26.783339   27.121510
 113 Zn   30.0000    0    65.380    5.947042   21.196416   27.121510
 114 Zn   30.0000    0    65.380   15.503504   15.817985   27.121510
 115 Zn   30.0000    0    65.380   12.277893   21.265913   36.951416
 116 Zn   30.0000    0    65.380    9.172654   26.783339   27.121510
 117 Zn   30.0000    0    65.380   18.608744   21.196416   27.121510
 118 Zn   30.0000    0    65.380    6.114430   17.707438   32.042042
 119 Zn   30.0000    0    65.380   12.277892   28.382866   32.042042
 120 Zn   30.0000    0    65.380   12.277891   17.731920   31.941820
 121 Zn   30.0000    0    65.380    9.151531   23.070919   21.963431
 122 Zn   30.0000    0    65.380    9.217363   23.032911   31.941820
 123 Zn   30.0000    0    65.380   18.441353   17.707438   32.042042
 124 Zn   30.0000    0    65.380   15.404252   23.070919   21.963431
 125 Zn   30.0000    0    65.380   15.338420   23.032911   31.941820
 126 Zn   30.0000    0    65.380   12.277891   17.655904   21.963431
 127 Zn   30.0000    0    65.380    9.052280   15.817985   27.121510
* core charge reduced due to ECP

--------------------------------
INTERNAL COORDINATES (ANGSTROEM)
--------------------------------
 H      0   0   0     0.000000000000     0.00000000     0.00000000
 H      1   0   0    10.581768573042     0.00000000     0.00000000
 H      2   1   0     1.738783608723    67.04262897     0.00000000
 H      3   2   1     1.740947115946    60.04110415   250.51784919
 H      1   2   3     5.606022668080    33.63763811   120.18049521
 H      5   1   2     1.701401698153   139.92454902   313.92827368
 H      5   1   2     3.260554695359    54.38781301   281.90358551
 H      7   5   1     1.717564048286   120.17774826   104.63467425
 H      7   5   1     1.711096799872    89.63303039   160.00572434
 H      2   1   7     7.545919501896    56.82578521   175.78714328
 H     10   2   1     5.214254789394   110.48370886    30.18466063
 H     11  10   2     1.746256129132    89.67521982    36.28489159
 H     11  10   2     1.698084550880   143.38035283     6.33670239
 H     10   2   1     3.241688411681    84.28479139   302.25945471
 H      6   5   1     3.252723101772    90.06535480   154.55307948
 H     11  10   2     3.253181834042    89.93685338   276.07866102
 H     16  11  10     1.698084552036    90.20462413   143.38051321
 H     14  10   2     3.250709734851   179.72656994   168.55234811
 H     18  14  10     1.731837535976   119.76736316   211.66142800
 H     19  18  14     1.713067931286    59.63688827    70.74284981
 H     10   2   1     4.959660296000    40.67442844    94.81354658
 H     12  11  10     1.506761022000   179.76801770   242.45244213
 H     22  12  13     1.746256074865   179.76796693    42.07040820
 H     23  22  12     1.698084453656    59.18312916   317.83641931
 H      2   1  17     5.059705543251    97.09492220   311.00973720
 H     25   2   1     1.736885504000    35.64707386   165.99906012
 H     26  25   2     1.736885433056    60.00002181    62.31627287
 H      1   2   3     3.258462700753    66.09604934   180.27978447
 H     19  18  14     3.250710154430   119.76737543     0.00000000
 H     17  16  11     1.701378802609    61.81923623   234.28993444
 H     30  17  16     1.506760262894   120.83025337   179.81863042
 H     15   6   5     1.734766254686   120.18127470   305.48973460
 H      8   7   5     1.506160850000   120.38117251   250.73743334
 H     11  10   2     3.071240761579    32.23092513   218.18774227
 H     16  11  10     1.492619679935    89.81373893   323.78334837
 H     34  11  10     1.506161003279   106.52395786   117.92933760
 H     35  16  11     1.711096763842   145.61841434   154.30117175
 H     10   2   1     3.250709959461    95.98319657   122.20488938
 H     38  10   2     1.731837417000   119.76736438   339.79178156
 H     39  38  10     1.713067880561    59.63689147   289.25715706
 H     39  38  10     3.076545721220    73.65275684    62.10149577
 H     41  39  38     1.740946923026   121.81850386   295.49680380
 H     42  41  39     1.738783605000    60.04111682   271.41430991
 H     40  39  38     1.503026497530   145.72065798   149.25631627
 H     22  12  13     1.489979972614    59.62677048   179.28666760
 H     42  41  39     1.517907863818   178.65812608   336.73063596
 H     15   6   5     1.711096800451    90.19676242     0.03242829
 H     46  42  43     1.712641308698   178.62862177   243.29305214
 H     19  18  14     3.076545909579    73.65275537   297.89851892
 H     49  19  18     1.740947082718   104.24816249   127.69203063
 H     30  17  16     1.489979877998   179.23459387    53.34023129
 H     20  19  18     1.503027077601   145.72065251   210.74373242
 H     23  22  45     3.061274943946   104.04781230     9.45248738
 H     23  22  45     1.492620391010   120.47883070     0.45740881
 H     32  15   6     1.506160601182   179.72260045    25.97781597
 H     43  42  41     1.517907376994   119.39112482   178.60059472
 H      2   1  31     1.517907287967    84.57515563    50.02661878
 H     50  49  19     1.517907891494   178.65808649   306.52914834
 H      3   2   1     1.517907571992   119.39110918    69.11844879
 H     33   8   7     1.717564101065   120.38115766     0.00000000
 H     60  33   8     1.711096764091    60.78988369   179.77457116
 H     48  46  42     1.517907865759   178.62856989     0.00000000
 H     60  33   8     1.492619753888   146.07649639    30.12709831
 H     34  11  10     1.734766038997    73.25236761   298.10054766
 H     57   2   1     3.045440085775    76.24523130    58.48382844
 H     47  15   6     1.492620160656   145.61841016    24.60649566
 H      5   1   2     1.489979879335    74.10684467   133.86810040
 H     66  47  15     1.698084485207   179.59676441   298.30965717
 H     59   3   2     3.045440176585    76.24523075   241.72610375
 H      5   1   2     1.489980397482    30.50921800   192.69453202
 H      7   5   1     1.492619752721    59.46567295   324.15298940
 H     71   7   5     1.698084541068   179.59675127    32.76150549
 H      6   5   1     3.073888725324   161.94033363   129.84138389
 H     73   6   5     1.731837327087    73.63822735   205.79071420
 H      6   5   1     1.503026762496   179.45533081   244.51604466
 H     11  10   2     1.492619677444    36.21676503   186.30764801
 Mo    51  30  31     4.096930638227    93.50953876   267.94016045
 O     13  11  10     1.056999999732    36.55777575   359.67384862
 O     46  42  43     1.056999999558   145.30569486    33.50544528
 O     77  51  30     1.912355995632    56.73974721   304.04123302
 O     52  20  19     1.057000000186   144.13811012    63.82701139
 O     57   2   1     1.056999999933   145.30575071   333.71541471
 O     77  51  30     1.912357253274   140.96414316    30.43636700
 O     43  42  41     1.056999999475    34.66327130    33.10075739
 O     45  22  12     1.057000000238   144.03303599   216.13465371
 O     77  51  30     1.912355865246    56.73975351   116.83149707
 O     10   2   1     1.056999999955    39.13798085    39.04370542
 O     14  10   2     1.056999999860    89.82541906    38.81247133
 O     21  10   2     1.056999999812    34.94846934   294.35576679
 O     29  19  18     1.056999999732    90.34938352    18.59965697
 O     65  57   2     1.056999999913    79.56118772   271.39478259
 O     69  59   3     1.056999999707    79.56118299    88.60522061
 O      6   5   1     1.057000000116    36.40656675    64.51604085
 O     38  10   2     1.056999999563    89.64358038   321.11299432
 O     59   3   2     1.056999999674   145.30571826   326.49454974
 O     47  15   6     1.056999999461    35.96148577   270.03213867
 O      8   7   5     1.056999999198    35.66192132    34.74922180
 O     17  16  11     1.056999999733    36.55777568   270.15668307
 O     28   1   2     1.057000000000    90.97795167    19.57882686
 O     50  49  19     1.056999999644    34.56003959   274.41231494
 O     19  18  14     1.056999999161    34.99290606    33.94855405
 O     67   5   1     1.056999999246   142.86110986   245.99346402
 O     31  30  17     1.056999999578   145.46298852   321.81271820
 O     24  23  22     1.056999999732    36.55778015    35.86678259
 O      4   3   2     1.056999999498    34.56003799    33.19845465
 O     74  73   6     1.056999999024    34.99291594    28.35706852
 O     76  11  10     1.056999999458   143.69864777     0.27684186
 O     35  16  11     1.056999999461   143.69864775    89.87062017
 O     53  23  22     1.056999999195    44.69315116   254.67655930
 O     26  25   2     1.056999999318    34.75361946    28.63495829
 O     60  33   8     1.056999999454    35.66191890   144.01177064
 O     71   7   5     1.056999999400   143.03944052    35.50159960
 Zn   107  76  11     1.929340607029   110.30058318   357.09124271
 Zn    96  47  15     1.929341302010   110.30057562   116.92877494
 Zn   111  60  33     1.929340768703   110.30058123   236.62560896
 Zn   110  26  25     1.970376279000   108.42925604   241.29668017
 Zn   109  53  23     1.929341624779   107.22535546    98.04433560
 Zn   108  35  16     1.929340659773   110.30058248     2.90875903
 Zn   105   4   3     1.963187527947   107.54257339   118.31900953
 Zn    84  43  42     1.963187527937   108.37211597   118.70452089
 Zn    95  59   3     1.954949020332   109.45421730   298.05567588
 Zn   104  24  23     1.929743234792   105.50627133   119.05228954
 Zn    82  57   2     1.954949020341   109.45421766    61.94429540
 Zn   100  50  49     1.963187527938   108.37211569   117.81478802
 Zn    78  13  11     1.929743207421   105.50627162   240.94763849
 Zn    79  46  42     1.954949020349   109.45421846    61.94433888
 Zn   112  71   7     1.929743348486   111.72260479    65.09222671
 Zn    97   8   7     1.929340733362   112.18953135   237.76504704

---------------------------
INTERNAL COORDINATES (A.U.)
---------------------------
 H      0   0   0     0.000000000000     0.00000000     0.00000000
 H      1   0   0    19.996644615583     0.00000000     0.00000000
 H      2   1   0     3.285824826637    67.04262897     0.00000000
 H      3   2   1     3.289913262778    60.04110415   250.51784919
 H      1   2   3    10.593847543227    33.63763811   120.18049521
 H      5   1   2     3.215183253298   139.92454902   313.92827368
 H      5   1   2     6.161555418900    54.38781301   281.90358551
 H      7   5   1     3.245725668730   120.17774826   104.63467425
 H      7   5   1     3.233504340387    89.63303039   160.00572434
 H      2   1   7    14.259721287200    56.82578521   175.78714328
 H     10   2   1     9.853513544441   110.48370886    30.18466063
 H     11  10   2     3.299945843740    89.67521982    36.28489159
 H     11  10   2     3.208914753406   143.38035283     6.33670239
 H     10   2   1     6.125903309583    84.28479139   302.25945471
 H      6   5   1     6.146755851828    90.06535480   154.55307948
 H     11  10   2     6.147622730187    89.93685338   276.07866102
 H     16  11  10     3.208914755589    90.20462413   143.38051321
 H     14  10   2     6.142951139739   179.72656994   168.55234811
 H     18  14  10     3.272698651440   119.76736316   211.66142800
 H     19  18  14     3.237229238934    59.63688827    70.74284981
 H     10   2   1     9.372399676723    40.67442844    94.81354658
 H     12  11  10     2.847365680847   179.76801770   242.45244213
 H     22  12  13     3.299945741192   179.76796693    42.07040820
 H     23  22  12     3.208914569679    59.18312916   317.83641931
 H      2   1  17     9.561457795028    97.09492220   311.00973720
 H     25   2   1     3.282237928538    35.64707386   165.99906012
 H     26  25   2     3.282237794474    60.00002181    62.31627287
 H      1   2   3     6.157602122021    66.09604934   180.27978447
 H     19  18  14     6.142951932630   119.76737543     0.00000000
 H     17  16  11     3.215139986990    61.81923623   234.28993444
 H     30  17  16     2.847364246346   120.83025337   179.81863042
 H     15   6   5     3.278233127726   120.18127470   305.48973460
 H      8   7   5     2.846231520134   120.38117251   250.73743334
 H     11  10   2     5.803803930721    32.23092513   218.18774227
 H     16  11  10     2.820642417179    89.81373893   323.78334837
 H     34  11  10     2.846231809789   106.52395786   117.92933760
 H     35  16  11     3.233504272300   145.61841434   154.30117175
 H     10   2   1     6.142951564192    95.98319657   122.20488938
 H     38  10   2     3.272698426608   119.76736438   339.79178156
 H     39  38  10     3.237229143077    59.63689147   289.25715706
 H     39  38  10     5.813828851592    73.65275684    62.10149577
 H     41  39  38     3.289912898211   121.81850386   295.49680380
 H     42  41  39     3.285824819602    60.04111682   271.41430991
 H     40  39  38     2.840308452359   145.72065798   149.25631627
 H     22  12  13     2.815654093267    59.62677048   179.28666760
 H     42  41  39     2.868430159142   178.65812608   336.73063596
 H     15   6   5     3.233504341482    90.19676242     0.03242829
 H     46  42  43     3.236423039079   178.62862177   243.29305214
 H     19  18  14     5.813829207539    73.65275537   297.89851892
 H     49  19  18     3.289913199986   104.24816249   127.69203063
 H     30  17  16     2.815653914469   179.23459387    53.34023129
 H     20  19  18     2.840309548534   145.72065251   210.74373242
 H     23  22  45     5.784971264693   104.04781230     9.45248738
 H     23  22  45     2.820643760916   120.47883070     0.45740881
 H     32  15   6     2.846231049935   179.72260045    25.97781597
 H     43  42  41     2.868429239178   119.39112482   178.60059472
 H      2   1  31     2.868429070941    84.57515563    50.02661878
 H     50  49  19     2.868430211442   178.65808649   306.52914834
 H      3   2   1     2.868429607671   119.39110918    69.11844879
 H     33   8   7     3.245725768468   120.38115766     0.00000000
 H     60  33   8     3.233504272771    60.78988369   179.77457116
 H     48  46  42     2.868430162810   178.62856989     0.00000000
 H     60  33   8     2.820642556929   146.07649639    30.12709831
 H     34  11  10     3.278232720132    73.25236761   298.10054766
 H     57   2   1     5.755047719380    76.24523130    58.48382844
 H     47  15   6     2.820643325610   145.61841016    24.60649566
 H      5   1   2     2.815653916997    74.10684467   133.86810040
 H     66  47  15     3.208914629302   179.59676441   298.30965717
 H     59   3   2     5.755047890987    76.24523075   241.72610375
 H      5   1   2     2.815654896151    30.50921800   192.69453202
 H      7   5   1     2.820642554724    59.46567295   324.15298940
 H     71   7   5     3.208914734864   179.59675127    32.76150549
 H      6   5   1     5.808807857011   161.94033363   129.84138389
 H     73   6   5     3.272698256696    73.63822735   205.79071420
 H      6   5   1     2.840308953071   179.45533081   244.51604466
 H     11  10   2     2.820642412470    36.21676503   186.30764801
 Mo    51  30  31     7.742076895920    93.50953876   267.94016045
 O     13  11  10     1.997440523048    36.55777575   359.67384862
 O     46  42  43     1.997440522719   145.30569486    33.50544528
 O     77  51  30     3.613829102308    56.73974721   304.04123302
 O     52  20  19     1.997440523906   144.13811012    63.82701139
 O     57   2   1     1.997440523428   145.30575071   333.71541471
 O     77  51  30     3.613831478906   140.96414316    30.43636700
 O     43  42  41     1.997440522563    34.66327130    33.10075739
 O     45  22  12     1.997440524004   144.03303599   216.13465371
 O     77  51  30     3.613828855913    56.73975351   116.83149707
 O     10   2   1     1.997440523470    39.13798085    39.04370542
 O     14  10   2     1.997440523289    89.82541906    38.81247133
 O     21  10   2     1.997440523199    34.94846934   294.35576679
 O     29  19  18     1.997440523049    90.34938352    18.59965697
 O     65  57   2     1.997440523390    79.56118772   271.39478259
 O     69  59   3     1.997440523000    79.56118299    88.60522061
 O      6   5   1     1.997440523774    36.40656675    64.51604085
 O     38  10   2     1.997440522729    89.64358038   321.11299432
 O     59   3   2     1.997440522938   145.30571826   326.49454974
 O     47  15   6     1.997440522537    35.96148577   270.03213867
 O      8   7   5     1.997440522038    35.66192132    34.74922180
 O     17  16  11     1.997440523050    36.55777568   270.15668307
 O     28   1   2     1.997440523555    90.97795167    19.57882686
 O     50  49  19     1.997440522882    34.56003959   274.41231494
 O     19  18  14     1.997440521969    34.99290606    33.94855405
 O     67   5   1     1.997440522129   142.86110986   245.99346402
 O     31  30  17     1.997440522758   145.46298852   321.81271820
 O     24  23  22     1.997440523048    36.55778015    35.86678259
 O      4   3   2     1.997440522607    34.56003799    33.19845465
 O     74  73   6     1.997440521711    34.99291594    28.35706852
 O     76  11  10     1.997440522530   143.69864777     0.27684186
 O     35  16  11     1.997440522537   143.69864775    89.87062017
 O     53  23  22     1.997440522034    44.69315116   254.67655930
 O     26  25   2     1.997440522266    34.75361946    28.63495829
 O     60  33   8     1.997440522522    35.66191890   144.01177064
 O     71   7   5     1.997440522421   143.03944052    35.50159960
 Zn   107  76  11     3.645925366337   110.30058318   357.09124271
 Zn    96  47  15     3.645926679662   110.30057562   116.92877494
 Zn   111  60  33     3.645925671858   110.30058123   236.62560896
 Zn   110  26  25     3.723471548085   108.42925604   241.29668017
 Zn   109  53  23     3.645927289607   107.22535546    98.04433560
 Zn   108  35  16     3.645925466009   110.30058248     2.90875903
 Zn   105   4   3     3.709886777350   107.54257339   118.31900953
 Zn    84  43  42     3.709886777331   108.37211597   118.70452089
 Zn    95  59   3     3.694318254206   109.45421730   298.05567588
 Zn   104  24  23     3.646686222545   105.50627133   119.05228954
 Zn    82  57   2     3.694318254222   109.45421766    61.94429540
 Zn   100  50  49     3.709886777333   108.37211569   117.81478802
 Zn    78  13  11     3.646686170820   105.50627162   240.94763849
 Zn    79  46  42     3.694318254237   109.45421846    61.94433888
 Zn   112  71   7     3.646686437395   111.72260479    65.09222671
 Zn    97   8   7     3.645925605073   112.18953135   237.76504704

---------------------
BASIS SET INFORMATION
---------------------
There are 4 groups of distinct atoms

 Group   1 Type H   : 5s1p contracted to 3s1p pattern {311/1}
 Group   2 Type Mo  : 7s7p5d1f contracted to 6s4p3d1f pattern {211111/4111/311/1}
 Group   3 Type O   : 11s6p2d1f contracted to 5s3p2d1f pattern {62111/411/11/1}
 Group   4 Type Zn  : 17s12p7d1f contracted to 6s5p4d1f pattern {842111/63111/4111/1}

Atom   0H    basis set group =>   1
Atom   1H    basis set group =>   1
Atom   2H    basis set group =>   1
Atom   3H    basis set group =>   1
Atom   4H    basis set group =>   1
Atom   5H    basis set group =>   1
Atom   6H    basis set group =>   1
Atom   7H    basis set group =>   1
Atom   8H    basis set group =>   1
Atom   9H    basis set group =>   1
Atom  10H    basis set group =>   1
Atom  11H    basis set group =>   1
Atom  12H    basis set group =>   1
Atom  13H    basis set group =>   1
Atom  14H    basis set group =>   1
Atom  15H    basis set group =>   1
Atom  16H    basis set group =>   1
Atom  17H    basis set group =>   1
Atom  18H    basis set group =>   1
Atom  19H    basis set group =>   1
Atom  20H    basis set group =>   1
Atom  21H    basis set group =>   1
Atom  22H    basis set group =>   1
Atom  23H    basis set group =>   1
Atom  24H    basis set group =>   1
Atom  25H    basis set group =>   1
Atom  26H    basis set group =>   1
Atom  27H    basis set group =>   1
Atom  28H    basis set group =>   1
Atom  29H    basis set group =>   1
Atom  30H    basis set group =>   1
Atom  31H    basis set group =>   1
Atom  32H    basis set group =>   1
Atom  33H    basis set group =>   1
Atom  34H    basis set group =>   1
Atom  35H    basis set group =>   1
Atom  36H    basis set group =>   1
Atom  37H    basis set group =>   1
Atom  38H    basis set group =>   1
Atom  39H    basis set group =>   1
Atom  40H    basis set group =>   1
Atom  41H    basis set group =>   1
Atom  42H    basis set group =>   1
Atom  43H    basis set group =>   1
Atom  44H    basis set group =>   1
Atom  45H    basis set group =>   1
Atom  46H    basis set group =>   1
Atom  47H    basis set group =>   1
Atom  48H    basis set group =>   1
Atom  49H    basis set group =>   1
Atom  50H    basis set group =>   1
Atom  51H    basis set group =>   1
Atom  52H    basis set group =>   1
Atom  53H    basis set group =>   1
Atom  54H    basis set group =>   1
Atom  55H    basis set group =>   1
Atom  56H    basis set group =>   1
Atom  57H    basis set group =>   1
Atom  58H    basis set group =>   1
Atom  59H    basis set group =>   1
Atom  60H    basis set group =>   1
Atom  61H    basis set group =>   1
Atom  62H    basis set group =>   1
Atom  63H    basis set group =>   1
Atom  64H    basis set group =>   1
Atom  65H    basis set group =>   1
Atom  66H    basis set group =>   1
Atom  67H    basis set group =>   1
Atom  68H    basis set group =>   1
Atom  69H    basis set group =>   1
Atom  70H    basis set group =>   1
Atom  71H    basis set group =>   1
Atom  72H    basis set group =>   1
Atom  73H    basis set group =>   1
Atom  74H    basis set group =>   1
Atom  75H    basis set group =>   1
Atom  76Mo   basis set group =>   2
Atom  77O    basis set group =>   3
Atom  78O    basis set group =>   3
Atom  79O    basis set group =>   3
Atom  80O    basis set group =>   3
Atom  81O    basis set group =>   3
Atom  82O    basis set group =>   3
Atom  83O    basis set group =>   3
Atom  84O    basis set group =>   3
Atom  85O    basis set group =>   3
Atom  86O    basis set group =>   3
Atom  87O    basis set group =>   3
Atom  88O    basis set group =>   3
Atom  89O    basis set group =>   3
Atom  90O    basis set group =>   3
Atom  91O    basis set group =>   3
Atom  92O    basis set group =>   3
Atom  93O    basis set group =>   3
Atom  94O    basis set group =>   3
Atom  95O    basis set group =>   3
Atom  96O    basis set group =>   3
Atom  97O    basis set group =>   3
Atom  98O    basis set group =>   3
Atom  99O    basis set group =>   3
Atom 100O    basis set group =>   3
Atom 101O    basis set group =>   3
Atom 102O    basis set group =>   3
Atom 103O    basis set group =>   3
Atom 104O    basis set group =>   3
Atom 105O    basis set group =>   3
Atom 106O    basis set group =>   3
Atom 107O    basis set group =>   3
Atom 108O    basis set group =>   3
Atom 109O    basis set group =>   3
Atom 110O    basis set group =>   3
Atom 111O    basis set group =>   3
Atom 112Zn   basis set group =>   4
Atom 113Zn   basis set group =>   4
Atom 114Zn   basis set group =>   4
Atom 115Zn   basis set group =>   4
Atom 116Zn   basis set group =>   4
Atom 117Zn   basis set group =>   4
Atom 118Zn   basis set group =>   4
Atom 119Zn   basis set group =>   4
Atom 120Zn   basis set group =>   4
Atom 121Zn   basis set group =>   4
Atom 122Zn   basis set group =>   4
Atom 123Zn   basis set group =>   4
Atom 124Zn   basis set group =>   4
Atom 125Zn   basis set group =>   4
Atom 126Zn   basis set group =>   4
Atom 127Zn   basis set group =>   4
---------------------------------
AUXILIARY/J BASIS SET INFORMATION
---------------------------------
There are 4 groups of distinct atoms

 Group   1 Type H   : 5s2p1d contracted to 3s1p1d pattern {311/2/1}
 Group   2 Type Mo  : 11s5p5d3f3g contracted to 8s5p5d2f3g pattern {41111111/11111/11111/21/111}
 Group   3 Type O   : 12s5p4d2f1g contracted to 6s4p3d1f1g pattern {711111/2111/211/2/1}
 Group   4 Type Zn  : 19s5p5d3f3g contracted to 8s5p5d2f3g pattern {121111111/11111/11111/21/111}

Atom   0H    basis set group =>   1
Atom   1H    basis set group =>   1
Atom   2H    basis set group =>   1
Atom   3H    basis set group =>   1
Atom   4H    basis set group =>   1
Atom   5H    basis set group =>   1
Atom   6H    basis set group =>   1
Atom   7H    basis set group =>   1
Atom   8H    basis set group =>   1
Atom   9H    basis set group =>   1
Atom  10H    basis set group =>   1
Atom  11H    basis set group =>   1
Atom  12H    basis set group =>   1
Atom  13H    basis set group =>   1
Atom  14H    basis set group =>   1
Atom  15H    basis set group =>   1
Atom  16H    basis set group =>   1
Atom  17H    basis set group =>   1
Atom  18H    basis set group =>   1
Atom  19H    basis set group =>   1
Atom  20H    basis set group =>   1
Atom  21H    basis set group =>   1
Atom  22H    basis set group =>   1
Atom  23H    basis set group =>   1
Atom  24H    basis set group =>   1
Atom  25H    basis set group =>   1
Atom  26H    basis set group =>   1
Atom  27H    basis set group =>   1
Atom  28H    basis set group =>   1
Atom  29H    basis set group =>   1
Atom  30H    basis set group =>   1
Atom  31H    basis set group =>   1
Atom  32H    basis set group =>   1
Atom  33H    basis set group =>   1
Atom  34H    basis set group =>   1
Atom  35H    basis set group =>   1
Atom  36H    basis set group =>   1
Atom  37H    basis set group =>   1
Atom  38H    basis set group =>   1
Atom  39H    basis set group =>   1
Atom  40H    basis set group =>   1
Atom  41H    basis set group =>   1
Atom  42H    basis set group =>   1
Atom  43H    basis set group =>   1
Atom  44H    basis set group =>   1
Atom  45H    basis set group =>   1
Atom  46H    basis set group =>   1
Atom  47H    basis set group =>   1
Atom  48H    basis set group =>   1
Atom  49H    basis set group =>   1
Atom  50H    basis set group =>   1
Atom  51H    basis set group =>   1
Atom  52H    basis set group =>   1
Atom  53H    basis set group =>   1
Atom  54H    basis set group =>   1
Atom  55H    basis set group =>   1
Atom  56H    basis set group =>   1
Atom  57H    basis set group =>   1
Atom  58H    basis set group =>   1
Atom  59H    basis set group =>   1
Atom  60H    basis set group =>   1
Atom  61H    basis set group =>   1
Atom  62H    basis set group =>   1
Atom  63H    basis set group =>   1
Atom  64H    basis set group =>   1
Atom  65H    basis set group =>   1
Atom  66H    basis set group =>   1
Atom  67H    basis set group =>   1
Atom  68H    basis set group =>   1
Atom  69H    basis set group =>   1
Atom  70H    basis set group =>   1
Atom  71H    basis set group =>   1
Atom  72H    basis set group =>   1
Atom  73H    basis set group =>   1
Atom  74H    basis set group =>   1
Atom  75H    basis set group =>   1
Atom  76Mo   basis set group =>   2
Atom  77O    basis set group =>   3
Atom  78O    basis set group =>   3
Atom  79O    basis set group =>   3
Atom  80O    basis set group =>   3
Atom  81O    basis set group =>   3
Atom  82O    basis set group =>   3
Atom  83O    basis set group =>   3
Atom  84O    basis set group =>   3
Atom  85O    basis set group =>   3
Atom  86O    basis set group =>   3
Atom  87O    basis set group =>   3
Atom  88O    basis set group =>   3
Atom  89O    basis set group =>   3
Atom  90O    basis set group =>   3
Atom  91O    basis set group =>   3
Atom  92O    basis set group =>   3
Atom  93O    basis set group =>   3
Atom  94O    basis set group =>   3
Atom  95O    basis set group =>   3
Atom  96O    basis set group =>   3
Atom  97O    basis set group =>   3
Atom  98O    basis set group =>   3
Atom  99O    basis set group =>   3
Atom 100O    basis set group =>   3
Atom 101O    basis set group =>   3
Atom 102O    basis set group =>   3
Atom 103O    basis set group =>   3
Atom 104O    basis set group =>   3
Atom 105O    basis set group =>   3
Atom 106O    basis set group =>   3
Atom 107O    basis set group =>   3
Atom 108O    basis set group =>   3
Atom 109O    basis set group =>   3
Atom 110O    basis set group =>   3
Atom 111O    basis set group =>   3
Atom 112Zn   basis set group =>   4
Atom 113Zn   basis set group =>   4
Atom 114Zn   basis set group =>   4
Atom 115Zn   basis set group =>   4
Atom 116Zn   basis set group =>   4
Atom 117Zn   basis set group =>   4
Atom 118Zn   basis set group =>   4
Atom 119Zn   basis set group =>   4
Atom 120Zn   basis set group =>   4
Atom 121Zn   basis set group =>   4
Atom 122Zn   basis set group =>   4
Atom 123Zn   basis set group =>   4
Atom 124Zn   basis set group =>   4
Atom 125Zn   basis set group =>   4
Atom 126Zn   basis set group =>   4
Atom 127Zn   basis set group =>   4
-------------------------
ECP PARAMETER INFORMATION
-------------------------

 Group 1, Type Mo ECP Def2-ECP (replacing 28 core electrons, lmax=3)

Atom  76Mo   ECP group =>   1



           ************************************************************
           *        Program running with 32 parallel MPI-processes    *
           *              working on a shared directory               *
           ************************************************************
------------------------------------------------------------------------------
                           ORCA GTO INTEGRAL CALCULATION
                           -- RI-GTO INTEGRALS CHOSEN --
------------------------------------------------------------------------------
------------------------------------------------------------------------------
                   ___                                                        
                  /   \      - P O W E R E D   B Y -                         
                 /     \                                                     
                 |  |  |   _    _      __       _____    __    __             
                 |  |  |  | |  | |    /  \     |  _  \  |  |  /  |          
                  \  \/   | |  | |   /    \    | | | |  |  | /  /          
                 / \  \   | |__| |  /  /\  \   | |_| |  |  |/  /          
                |  |  |   |  __  | /  /__\  \  |    /   |      \           
                |  |  |   | |  | | |   __   |  |    \   |  |\   \          
                \     /   | |  | | |  |  |  |  | |\  \  |  | \   \       
                 \___/    |_|  |_| |__|  |__|  |_| \__\ |__|  \__/        
                                                                              
                      - O R C A' S   B I G   F R I E N D -                    
                                      &                                       
                       - I N T E G R A L  F E E D E R -                       
                                                                              
 v1 FN, 2020, v2 2021                                                         
------------------------------------------------------------------------------


Reading SHARK input file zfs.SHARKINP.tmp ... ok
----------------------
SHARK INTEGRAL PACKAGE
----------------------

Number of atoms                             ...    128
Number of basis functions                   ...   2349
Number of shells                            ...    959
Maximum angular momentum                    ...      3
Integral batch strategy                     ... SHARK/LIBINT Hybrid
RI-J (if used) integral strategy            ... SPLIT-RIJ (Revised 2003 algorithm where possible)
Printlevel                                  ...      1
Contraction scheme used                     ... SEGMENTED contraction
Coulomb Range Separation                    ... NOT USED
Exchange Range Separation                   ... NOT USED
Finite Nucleus Model                        ... NOT USED
Auxiliary Coulomb fitting basis             ... AVAILABLE
   # of basis functions in Aux-J            ...   4064
   # of shells in Aux-J                     ...   1296
   Maximum angular momentum in Aux-J        ...      4
Auxiliary J/K fitting basis                 ... NOT available
Auxiliary Correlation fitting basis         ... NOT available
Auxiliary 'external' fitting basis          ... NOT available
Integral threshold                          ...     3.000000e-16
Primitive cut-off                           ...     3.000000e-16
Primitive pair pre-selection threshold      ...     3.000000e-16

Calculating pre-screening integrals         ... done (  2.8 sec) Dimension = 959
Organizing shell pair data                  ... done (  1.6 sec)
Shell pair information
Total number of shell pairs                 ...    460320
Shell pairs after pre-screening             ...    254903
Total number of primitive shell pairs       ...   1565748
Primitive shell pairs kept                  ...    509542
          la=0 lb=0:  73481 shell pairs
          la=1 lb=0:  76459 shell pairs
          la=1 lb=1:  20125 shell pairs
          la=2 lb=0:  38839 shell pairs
          la=2 lb=1:  20238 shell pairs
          la=2 lb=2:   5248 shell pairs
          la=3 lb=0:  11561 shell pairs
          la=3 lb=1:   5821 shell pairs
          la=3 lb=2:   2840 shell pairs
          la=3 lb=3:    291 shell pairs

Calculating one electron integrals          ... done (  0.4 sec)
Calculating ECP integrals                   ... done (  6.5 sec)
Calculating RI/J V-Matrix + Cholesky decomp.... done (  1.8 sec)
Calculating Nuclear repulsion               ... done (  0.0 sec) ENN=  35781.250625016786 Eh

SHARK setup successfully completed in  13.6 seconds

Maximum memory used throughout the entire GTOINT-calculation: 380.7 MB


           ************************************************************
           *        Program running with 32 parallel MPI-processes    *
           *              working on a shared directory               *
           ************************************************************
-------------------------------------------------------------------------------
                                 ORCA SCF
-------------------------------------------------------------------------------

------------
SCF SETTINGS
------------
Hamiltonian:
 Density Functional     Method          .... DFT(GTOs)
 Exchange Functional    Exchange        .... PBE
   PBE kappa parameter   XKappa         ....  0.804000
   PBE mue parameter    XMuePBE         ....  0.219520
 Correlation Functional Correlation     .... PBE
   PBE beta parameter  CBetaPBE         ....  0.066725
 LDA part of GGA corr.  LDAOpt          .... PW91-LDA
 Gradients option       PostSCFGGA      .... off
 Hybrid DFT is turned on
   Fraction HF Exchange ScalHFX         ....  0.250000
   Scaling of DF-GGA-X  ScalDFX         ....  0.750000
   Scaling of DF-GGA-C  ScalDFC         ....  1.000000
   Scaling of DF-LDA-C  ScalLDAC        ....  1.000000
   Perturbative correction              ....  0.000000
   Density functional embedding theory  .... OFF
   NL short-range parameter             ....  6.900000
 RI-approximation to the Coulomb term is turned on
   Number of AuxJ basis functions       .... 4064
   RIJ-COSX (HFX calculated with COS-X)).... on


General Settings:
 Integral files         IntName         .... zfs
 Hartree-Fock type      HFTyp           .... UHF
 Total Charge           Charge          ....   40
 Multiplicity           Mult            ....    3
 Number of Electrons    NEL             ....  810
 Basis Dimension        Dim             .... 2349
 Nuclear Repulsion      ENuc            ....  35781.2506250168 Eh

Convergence Acceleration:
 DIIS                   CNVDIIS         .... on
   Start iteration      DIISMaxIt       ....    12
   Startup error        DIISStart       ....  0.200000
   # of expansion vecs  DIISMaxEq       ....     5
   Bias factor          DIISBfac        ....   1.050
   Max. coefficient     DIISMaxC        ....  10.000
 Trust-Rad. Augm. Hess. CNVTRAH         .... auto
   Auto Start mean grad. ratio tolernc. ....  1.125000
   Auto Start start iteration           ....    20
   Auto Start num. interpolation iter.  ....    10
   Max. Number of Micro iterations      ....    16
   Max. Number of Macro iterations      .... Maxiter - #DIIS iter
   Number of Davidson start vectors     ....     2
   Converg. threshold I  (grad. norm)   ....   1.000e-09
   Converg. threshold II (energy diff.) ....   1.000e-14
   Grad. Scal. Fac. for Micro threshold ....   0.100
   Minimum threshold for Micro iter.    ....   0.010
   NR start threshold (gradient norm)   ....   0.001
   Initial trust radius                 ....   0.400
   Minimum AH scaling param. (alpha)    ....   1.000
   Maximum AH scaling param. (alpha)    .... 1000.000
   Orbital update algorithm             .... Taylor
   White noise on init. David. guess    .... on
   Maximum white noise                  ....   0.010
   Quad. conv. algorithm                .... NR
 SOSCF                  CNVSOSCF        .... off
 Level Shifting         CNVShift        .... on
   Level shift para.    LevelShift      ....    0.2500
   Turn off err/grad.   ShiftErr        ....    0.0010
 Zerner damping         CNVZerner       .... off
 Static damping         CNVDamp         .... on
   Fraction old density DampFac         ....    0.7000
   Max. Damping (<1)    DampMax         ....    0.9800
   Min. Damping (>=0)   DampMin         ....    0.0000
   Turn off err/grad.   DampErr         ....    0.1000
 Fernandez-Rico         CNVRico         .... off

SCF Procedure:
 Maximum # iterations   MaxIter         ....   125
 SCF integral mode      SCFMode         .... Direct
   Integral package                     .... SHARK and LIBINT hybrid scheme
 Reset frequency        DirectResetFreq ....    20
 Integral Threshold     Thresh          ....  3.000e-16 Eh
 Primitive CutOff       TCut            ....  3.000e-16 Eh

Convergence Tolerance:
 Convergence Check Mode ConvCheckMode   .... All-Criteria
 Convergence forced     ConvForced      .... 0
 Energy Change          TolE            ....  1.000e-14 Eh
 Max Density Change     TolMaxP         ....  1.000e-14
 RMS Density Change     TolRMSP         ....  1.000e-14
 DIIS Error             TolErr          ....  1.000e-14


Diagonalization of the overlap matrix:
Smallest eigenvalue                        ... 3.256e-05
Time for diagonalization                   ...    3.420 sec
Threshold for overlap eigenvalues          ... 1.000e-08
Number of eigenvalues below threshold      ... 0
Time for construction of square roots      ...    0.787 sec
Total time needed                          ...    4.229 sec

Time for model grid setup =    2.169 sec

------------------------------
INITIAL GUESS: MODEL POTENTIAL
------------------------------
Loading Hartree-Fock densities                     ... done
  calling /data/groups/ping/kli103/programs/orca/orca/orca zfs_atom42.inp > zfs_atom42.out in order to generate an atomic fitting density for atom 76 (Mo with ECP) on-the-fly... 
    atom 76 (Mo), assumed electronic state with S=5: 1s2 2s2 2p6 3s2 3p6 4s2 3d10 4p6 5s2 4d4           ... done
Calculating cut-offs                               ... done
Initializing the effective Hamiltonian             ... done
Setting up the integral package (SHARK)            ... done
Starting the Coulomb interaction                   ... done (   3.0 sec)
Reading the grid                                   ... done
Mapping shells                                     ... done
Starting the XC term evaluation                    ... done (   1.0 sec)
  promolecular density results
     # of electrons  =    877.951661165
     EX              =  -1542.158445926
     EC              =    -37.374461609
     EX+EC           =  -1579.532907535
Transforming the Hamiltonian                       ... done (   0.5 sec)
Diagonalizing the Hamiltonian                      ... done (   0.8 sec)
Back transforming the eigenvectors                 ... done (   0.2 sec)
Now organizing SCF variables                       ... done
                      ------------------
                      INITIAL GUESS DONE (  11.6 sec)
                      ------------------
-------------------
DFT GRID GENERATION
-------------------

General Integration Accuracy     IntAcc      ... 4.388
Radial Grid Type                 RadialGrid  ... OptM3 with GC (2021)
Angular Grid (max. ang.)         AngularGrid ... 4 (Lebedev-302)
Angular grid pruning method      GridPruning ... 4 (adaptive)
Weight generation scheme         WeightScheme... Becke
Basis function cutoff            BFCut       ... 3.0000e-16
Integration weight cutoff        WCut        ... 1.0000e-14
Angular grids for H and He will be reduced by one unit
Partially contracted basis set               ... off
Rotationally invariant grid construction     ... off

Total number of grid points                  ...   621130
Total number of batches                      ...     9769
Average number of points per batch           ...       63
Average number of grid points per atom       ...     4853
Time for grid setup =    5.689 sec

--------------------
COSX GRID GENERATION
--------------------

GRIDX 1
-------
General Integration Accuracy     IntAcc      ... 3.816
Radial Grid Type                 RadialGrid  ... OptM3 with GC (2021)
Angular Grid (max. ang.)         AngularGrid ... 1 (Lebedev-50)
Angular grid pruning method      GridPruning ... 4 (adaptive)
Weight generation scheme         WeightScheme... Becke
Basis function cutoff            BFCut       ... 3.0000e-16
Integration weight cutoff        WCut        ... 1.0000e-14
Angular grids for H and He will be reduced by one unit
Partially contracted basis set               ... on
Rotationally invariant grid construction     ... off

Total number of grid points                  ...    75574
Total number of batches                      ...     1248
Average number of points per batch           ...       60
Average number of grid points per atom       ...      590
UseSFitting                                  ... on

GRIDX 2
-------
General Integration Accuracy     IntAcc      ... 4.020
Radial Grid Type                 RadialGrid  ... OptM3 with GC (2021)
Angular Grid (max. ang.)         AngularGrid ... 2 (Lebedev-110)
Angular grid pruning method      GridPruning ... 4 (adaptive)
Weight generation scheme         WeightScheme... Becke
Basis function cutoff            BFCut       ... 3.0000e-16
Integration weight cutoff        WCut        ... 1.0000e-14
Angular grids for H and He will be reduced by one unit
Partially contracted basis set               ... on
Rotationally invariant grid construction     ... off

Total number of grid points                  ...   155333
Total number of batches                      ...     2497
Average number of points per batch           ...       62
Average number of grid points per atom       ...     1214
UseSFitting                                  ... on

GRIDX 3
-------
General Integration Accuracy     IntAcc      ... 4.338
Radial Grid Type                 RadialGrid  ... OptM3 with GC (2021)
Angular Grid (max. ang.)         AngularGrid ... 3 (Lebedev-194)
Angular grid pruning method      GridPruning ... 4 (adaptive)
Weight generation scheme         WeightScheme... Becke
Basis function cutoff            BFCut       ... 3.0000e-16
Integration weight cutoff        WCut        ... 1.0000e-14
Angular grids for H and He will be reduced by one unit
Partially contracted basis set               ... on
Rotationally invariant grid construction     ... off

Total number of grid points                  ...   331563
Total number of batches                      ...     5247
Average number of points per batch           ...       63
Average number of grid points per atom       ...     2590
UseSFitting                                  ... on

Time for X-Grid setup             =    8.364 sec


Warning (ORCA_SCF): Not enough memory available!
                    Memory available for SCF calculation:         1024 MB
                    Memory needed (estimated)           :         1290 MB


--------------
SCF ITERATIONS
--------------
ITER       Energy         Delta-E        Max-DP      RMS-DP      [F,P]     Damp
               ***  Starting incremental Fock matrix formation  ***
  0 -30161.7668178669   0.0000000000001277.75549258  1.30654204  5.1952614 0.7000
  1 -30594.5632253156-432.796407448721932.84083169  0.93204085  2.4707674 0.7000
  2 -30631.8431254265 -37.279900110887637.54905444  0.64860666  0.8937098 0.7000
  3 -30486.9591237150 144.884001711504455.19541871  0.45629616  1.1463620 0.7000
  4 -30481.7483854982   5.210738216741238.26962976  0.29327453  0.9308122 0.7000
  5 -30526.9459986710 -45.197613172710264.55334574  0.26119604  0.6977763 0.7000
  6 -30454.0064859182  72.939512752710157.04109412  0.16703609  0.8184040 0.7000
  7 -30461.7226863738  -7.716200455583131.96111722  0.13396698  1.2422327 0.7000
  8 -30461.4530202909   0.26966608287770.35269978  0.07959381  0.9889986 0.7000
  9 -30501.3850224825 -39.93200219154588.30255649  0.08922182  1.2491230 0.7000
 10 -30428.8800178723  72.50500461022294.74947357  0.07463537  0.8649352 0.7000
 11 -30459.1133710657 -30.23335319342067.11129246  0.07534406  1.5100497 0.7000
                               ***Turning on DIIS***
 12 -30459.5109971954  -0.39762612966742.30598642  0.04402440  0.8718633 0.7000
 13 -30511.8631480665 -52.35215087116757.23301537  0.05535371  1.2889074 0.7000
 14 -30737.9234217208-226.06027365428242.51151387  0.04322483  0.8809351 0.7000
 15 -30885.9037470215-147.98032530067629.59409537  0.03041618  1.0375888 0.7000
 16 -30968.7058318107 -82.80208478916820.58030161  0.02118568  1.2226002 0.7000
 17 -31019.6853639645 -50.97953215388473.20754818  0.09538261  1.3759233 0.7000
 18 -30722.1899606632 297.49540330137826.84781358  0.02918357  1.7782550 0.7000
 19 -30654.4427931779  67.74716748521323.56379234  0.02769017  1.8409106 0.7000
               *** Restarting incremental Fock matrix formation ***
                                   *** Resetting DIIS ***

 WARNING: the maximum gradient error descreased on average only by a factor   0.9
          during the last 20 iterations

                      *** Initiating the TRAH-SCF procedure ***


TRAH GRIDX
----------

[...]
 2160( 0) :     9.399697 a.u.   255.779 eV
 2161( 0) :     9.465704 a.u.   257.575 eV
 2162( 0) :     9.492124 a.u.   258.294 eV
 2163( 0) :     9.503035 a.u.   258.591 eV
 2164( 0) :     9.521512 a.u.   259.094 eV
 2165( 0) :     9.532341 a.u.   259.388 eV
 2166( 0) :     9.545134 a.u.   259.736 eV
 2167( 0) :     9.572435 a.u.   260.479 eV
 2168( 0) :     9.623816 a.u.   261.877 eV
 2169( 0) :     9.654048 a.u.   262.700 eV
 2170( 0) :     9.670359 a.u.   263.144 eV
 2171( 0) :     9.675389 a.u.   263.281 eV
 2172( 0) :     9.706960 a.u.   264.140 eV
 2173( 0) :     9.717450 a.u.   264.425 eV
 2174( 0) :     9.727793 a.u.   264.707 eV
 2175( 0) :     9.785730 a.u.   266.283 eV
 2176( 0) :     9.793949 a.u.   266.507 eV
 2177( 0) :     9.806224 a.u.   266.841 eV
 2178( 0) :     9.836568 a.u.   267.667 eV
 2179( 0) :     9.849399 a.u.   268.016 eV
 2180( 0) :     9.859023 a.u.   268.278 eV
 2181( 0) :     9.867637 a.u.   268.512 eV
 2182( 0) :     9.868646 a.u.   268.540 eV
 2183( 0) :     9.896103 a.u.   269.287 eV
 2184( 0) :     9.923831 a.u.   270.041 eV
 2185( 0) :     9.950932 a.u.   270.779 eV
 2186( 0) :     9.983632 a.u.   271.668 eV
 2187( 0) :    10.011252 a.u.   272.420 eV
 2188( 0) :    10.034463 a.u.   273.052 eV
 2189( 0) :    10.044585 a.u.   273.327 eV
 2190( 0) :    10.051152 a.u.   273.506 eV
 2191( 0) :    10.059530 a.u.   273.734 eV
 2192( 0) :    10.064577 a.u.   273.871 eV
 2193( 0) :    10.074100 a.u.   274.130 eV
 2194( 0) :    10.101595 a.u.   274.878 eV
 2195( 0) :    10.125257 a.u.   275.522 eV
 2196( 0) :    10.133548 a.u.   275.748 eV
 2197( 0) :    10.136959 a.u.   275.841 eV
 2198( 0) :    10.150639 a.u.   276.213 eV
 2199( 0) :    10.153335 a.u.   276.286 eV
 2200( 0) :    10.163413 a.u.   276.561 eV
 2201( 0) :    10.194717 a.u.   277.412 eV
 2202( 0) :    10.198649 a.u.   277.519 eV
 2203( 0) :    10.200353 a.u.   277.566 eV
 2204( 0) :    10.208709 a.u.   277.793 eV
 2205( 0) :    10.216759 a.u.   278.012 eV
 2206( 0) :    10.218934 a.u.   278.071 eV
 2207( 0) :    10.231199 a.u.   278.405 eV
 2208( 0) :    10.234599 a.u.   278.498 eV
 2209( 0) :    10.243810 a.u.   278.748 eV
 2210( 0) :    10.256297 a.u.   279.088 eV
 2211( 0) :    10.259937 a.u.   279.187 eV
 2212( 0) :    10.261412 a.u.   279.227 eV
 2213( 0) :    10.274053 a.u.   279.571 eV
 2214( 0) :    10.284251 a.u.   279.849 eV
 2215( 0) :    10.304676 a.u.   280.404 eV
 2216( 0) :    10.339402 a.u.   281.349 eV
 2217( 0) :    10.355362 a.u.   281.784 eV
 2218( 0) :    10.387441 a.u.   282.657 eV
 2219( 0) :    10.395154 a.u.   282.867 eV
 2220( 0) :    10.404568 a.u.   283.123 eV
 2221( 0) :    10.465543 a.u.   284.782 eV
 2222( 0) :    10.478450 a.u.   285.133 eV
 2223( 0) :    10.489321 a.u.   285.429 eV
 2224( 0) :    10.509615 a.u.   285.981 eV
 2225( 0) :    10.511688 a.u.   286.038 eV
 2226( 0) :    10.522572 a.u.   286.334 eV
 2227( 0) :    10.604696 a.u.   288.568 eV
 2228( 0) :    10.608363 a.u.   288.668 eV
 2229( 0) :    10.635157 a.u.   289.397 eV
 2230( 0) :    10.654238 a.u.   289.917 eV
 2231( 0) :    10.689068 a.u.   290.864 eV
 2232( 0) :    10.824165 a.u.   294.540 eV
 2233( 0) :    10.872320 a.u.   295.851 eV
 2234( 0) :    10.891738 a.u.   296.379 eV
 2235( 0) :    10.933115 a.u.   297.505 eV
 2236( 0) :    10.957864 a.u.   298.179 eV
 2237( 0) :    11.111764 a.u.   302.366 eV
 2238( 0) :    11.396130 a.u.   310.104 eV
 2239( 0) :    11.421065 a.u.   310.783 eV
 2240( 0) :    11.425692 a.u.   310.909 eV
 2241( 0) :    11.454394 a.u.   311.690 eV
 2242( 0) :    11.463825 a.u.   311.947 eV
 2243( 0) :    11.479474 a.u.   312.372 eV
 2244( 0) :    11.482207 a.u.   312.447 eV
 2245( 0) :    11.500712 a.u.   312.950 eV
 2246( 0) :    11.540588 a.u.   314.035 eV
 2247( 0) :    11.582119 a.u.   315.165 eV
 2248( 0) :    11.592389 a.u.   315.445 eV
 2249( 0) :    11.605445 a.u.   315.800 eV
 2250( 0) :    11.621080 a.u.   316.226 eV
 2251( 0) :    11.627755 a.u.   316.407 eV
 2252( 0) :    11.645522 a.u.   316.891 eV
 2253( 0) :    11.659756 a.u.   317.278 eV
 2254( 0) :    11.677554 a.u.   317.762 eV
 2255( 0) :    11.688267 a.u.   318.054 eV
 2256( 0) :    11.694538 a.u.   318.225 eV
 2257( 0) :    11.701953 a.u.   318.426 eV
 2258( 0) :    11.711121 a.u.   318.676 eV
 2259( 0) :    11.725728 a.u.   319.073 eV
 2260( 0) :    11.737842 a.u.   319.403 eV
 2261( 0) :    11.742694 a.u.   319.535 eV
 2262( 0) :    11.756509 a.u.   319.911 eV
 2263( 0) :    11.766984 a.u.   320.196 eV
 2264( 0) :    11.769818 a.u.   320.273 eV
 2265( 0) :    11.779125 a.u.   320.526 eV
 2266( 0) :    11.784174 a.u.   320.664 eV
 2267( 0) :    11.799665 a.u.   321.085 eV
 2268( 0) :    11.815273 a.u.   321.510 eV
 2269( 0) :    11.826346 a.u.   321.811 eV
 2270( 0) :    11.840783 a.u.   322.204 eV
 2271( 0) :    11.869036 a.u.   322.973 eV
 2272( 0) :    11.870886 a.u.   323.023 eV
 2273( 0) :    11.877566 a.u.   323.205 eV
 2274( 0) :    11.887941 a.u.   323.487 eV
 2275( 0) :    11.906583 a.u.   323.995 eV
 2276( 0) :    11.996260 a.u.   326.435 eV
 2277( 0) :    12.009063 a.u.   326.783 eV
 2278( 0) :    12.036755 a.u.   327.537 eV
 2279( 0) :    12.129465 a.u.   330.060 eV
 2280( 0) :    12.136291 a.u.   330.245 eV
 2281( 0) :    12.152034 a.u.   330.674 eV
 2282( 0) :    12.164556 a.u.   331.014 eV
 2283( 0) :    12.165544 a.u.   331.041 eV
 2284( 0) :    12.173517 a.u.   331.258 eV
 2285( 0) :    12.191209 a.u.   331.740 eV
 2286( 0) :    12.210780 a.u.   332.272 eV
 2287( 0) :    12.260294 a.u.   333.620 eV
 2288( 0) :    12.460661 a.u.   339.072 eV
 2289( 0) :    12.491266 a.u.   339.905 eV
 2290( 0) :    12.646388 a.u.   344.126 eV
 2291( 0) :    12.672710 a.u.   344.842 eV
 2292( 0) :    12.810759 a.u.   348.598 eV
 2293( 0) :    12.863689 a.u.   350.039 eV
 2294( 0) :    12.884508 a.u.   350.605 eV
 2295( 0) :    13.060714 a.u.   355.400 eV
 2296( 0) :    13.083504 a.u.   356.020 eV
 2297( 0) :    13.105815 a.u.   356.627 eV
 2298( 0) :    13.144962 a.u.   357.693 eV
 2299( 0) :    13.204080 a.u.   359.301 eV
 2300( 0) :    13.241866 a.u.   360.329 eV
 2301( 0) :    13.444160 a.u.   365.834 eV
 2302( 0) :    13.479385 a.u.   366.793 eV
 2303( 0) :    13.575572 a.u.   369.410 eV
 2304( 0) :    13.625700 a.u.   370.774 eV
 2305( 0) :    14.155842 a.u.   385.200 eV
 2306( 0) :    14.166298 a.u.   385.485 eV
 2307( 0) :    14.170901 a.u.   385.610 eV
 2308( 0) :    14.186877 a.u.   386.045 eV
 2309( 0) :    14.195368 a.u.   386.276 eV
 2310( 0) :    14.195756 a.u.   386.286 eV
 2311( 0) :    14.233796 a.u.   387.321 eV
 2312( 0) :    22.783704 a.u.   619.976 eV
 2313( 0) :    39.048950 a.u.  1062.576 eV
 2314( 0) :    39.108084 a.u.  1064.185 eV
 2315( 0) :    39.289676 a.u.  1069.126 eV
 2316( 0) :    39.375152 a.u.  1071.452 eV
 2317( 0) :    39.546368 a.u.  1076.111 eV
 2318( 0) :    39.717186 a.u.  1080.760 eV
 2319( 0) :    39.757242 a.u.  1081.850 eV
 2320( 0) :    40.141225 a.u.  1092.298 eV
 2321( 0) :    40.158141 a.u.  1092.759 eV
 2322( 0) :    40.248957 a.u.  1095.230 eV
 2323( 0) :    40.293322 a.u.  1096.437 eV
 2324( 0) :    40.304419 a.u.  1096.739 eV
 2325( 0) :    40.347624 a.u.  1097.915 eV
 2326( 0) :    40.392499 a.u.  1099.136 eV
 2327( 0) :    41.002333 a.u.  1115.730 eV
 2328( 0) :    41.053265 a.u.  1117.116 eV
 2329( 0) :    41.631345 a.u.  1132.846 eV
 2330( 0) :    42.402682 a.u.  1153.836 eV
 2331( 0) :    42.763759 a.u.  1163.661 eV
 2332( 0) :    44.179069 a.u.  1202.174 eV
 2333( 0) :    44.214885 a.u.  1203.148 eV
 2334( 0) :    44.884733 a.u.  1221.376 eV
 2335( 0) :    44.945423 a.u.  1223.027 eV
 2336( 0) :    45.312231 a.u.  1233.008 eV
 2337( 0) :    45.375910 a.u.  1234.741 eV
 2338( 0) :    47.118708 a.u.  1282.165 eV
 2339( 0) :    47.204383 a.u.  1284.497 eV
 2340( 0) :    47.229040 a.u.  1285.168 eV
 2341( 0) :    47.807251 a.u.  1300.901 eV
 2342( 0) :    47.986800 a.u.  1305.787 eV
 2343( 0) :    49.059903 a.u.  1334.988 eV
 2344( 0) :    49.371920 a.u.  1343.478 eV
 2345( 0) :    49.468301 a.u.  1346.101 eV
 2346( 0) :    51.343421 a.u.  1397.126 eV
 2347( 0) :    51.388217 a.u.  1398.344 eV
 2348( 0) :    83.607424 a.u.  2275.074 eV
-------
TIMINGS
-------

Total SCF time: 0 days 4 hours 26 min 34 sec 

Total time                  ....   15994.211 sec
Sum of individual times     ....   15824.250 sec  ( 98.9%)

Fock matrix formation       ....   14786.217 sec  ( 92.4%)
  Split-RI-J                ....    2076.067 sec  ( 14.0% of F)
  Chain of spheres X        ....   11197.430 sec  ( 75.7% of F)
  XC integration            ....    1477.120 sec  ( 10.0% of F)
    Basis function eval.    ....      68.368 sec  (  4.6% of XC)
    Density eval.           ....     516.415 sec  ( 35.0% of XC)
    XC-Functional eval.     ....       2.764 sec  (  0.2% of XC)
    XC-Potential eval.      ....     629.350 sec  ( 42.6% of XC)
Diagonalization             ....      40.737 sec  (  0.3%)
Density matrix formation    ....      72.527 sec  (  0.5%)
Population analysis         ....     127.773 sec  (  0.8%)
Initial guess               ....       9.461 sec  (  0.1%)
Orbital Transformation      ....     731.695 sec  (  4.6%)
Orbital Orthonormalization  ....       0.000 sec  (  0.0%)
DIIS solution               ....      39.219 sec  (  0.2%)
Grid generation             ....      16.222 sec  (  0.1%)

Maximum memory used throughout the entire SCF-calculation: 1544.0 MB

-------------------------   --------------------
FINAL SINGLE POINT ENERGY    -31180.836747348359
-------------------------   --------------------

   --->>> SOC part of D-tensor requested, so NeedSOC=true

                            ***************************************
                            *     ORCA property calculations      *
                            ***************************************

                                    ---------------------
                                    Active property flags
                                    ---------------------
   (+) Dipole Moment
   (+) D-tensor
   (+) Spin-Orbit Integrals are needed


------------------------------------------------------------------------------
                       ORCA ELECTRIC PROPERTIES CALCULATION
------------------------------------------------------------------------------

Dipole Moment Calculation                       ... on
Quadrupole Moment Calculation                   ... off
Polarizability Calculation                      ... off
GBWName                                         ... zfs.gbw
Electron density                                ... zfs.scfp
The origin for moment calculation is the CENTER OF MASS  = (12.277892, 21.265914 28.393479)

-------------
DIPOLE MOMENT
-------------
                                X             Y             Z
Electronic contribution:      0.00002      -0.00115     -42.62268
Nuclear contribution   :     -0.00002       0.00002      39.24340
                        -----------------------------------------
Total Dipole Moment    :     -0.00000      -0.00113      -3.37928
                        -----------------------------------------
Magnitude (a.u.)       :      3.37928
Magnitude (Debye)      :      8.58946



--------------------
Rotational spectrum 
--------------------
 
Rotational constants in cm-1:     0.000956     0.000874     0.000874 
Rotational constants in MHz :    28.656262    26.188730    26.188728 

 Dipole components along the rotational axes: 
x,y,z [a.u.] :    -3.379283     0.000306     0.001092 
x,y,z [Debye]:    -8.589455     0.000779     0.002776 

 


           ************************************************************
           *        Program running with 32 parallel MPI-processes    *
           *              working on a shared directory               *
           ************************************************************
------------------------------------------------------------------------------
                         ORCA SPIN-ORBIT COUPLING CALCULATION
------------------------------------------------------------------------------

GBW file                                    ... zfs.gbw
Input density                               ... zfs.scfp
Output integrals                            ... zfs
Operator type                               ... Mean-field/Effective potential
   One-Electron Terms                       ... 1
   Coulomb Contribution                     ... 3
   Exchange Contribution                    ... 3
   Correlation Contribution                 ... 0
   Maximum number of centers                ... 4
SHARK 2-electron RIJ-SOMF                   ... done ( 52.2 sec)
SHARK 1-electron  MaxCenter=4               ... done (  0.7 sec)
SHARK 2-electron DoJ,X=0,1 MaxCenter=1      ... done ( 56.4 sec)

Maximum memory used throughout the entire SOC-calculation: 4534.6 MB
Total time for SOC: 117.168


           ************************************************************
           *        Program running with 32 parallel MPI-processes    *
           *              working on a shared directory               *
           ************************************************************
------------------------------------------------------------------------------
                                ORCA EPR/NMR CALCULATION
------------------------------------------------------------------------------

GBWName                      ... zfs.gbw
Electron density             ... zfs.scfp
Spin density                 ... zfs.scfr
Spin-orbit integrals         ... zfs
Multiplicity                 ... 3
g-tensor                     ... 0
NMR chemical shifts          ... 0
D-tensor                     ... spin-spin and spin-orbit
D(SS)-algorithm              ... input spin density
NMR spin-spin couplings      ... 0
NMR spectrum                 ... 0

Starting the spin-spin zero-field-splitting computation (DIRECT)...
SHARK: Electron-Electron contact term tr(DSS) =    0.0000 1/cm
                                      tr(DSSJ)=    1.1951 1/cm
                                      tr(DSSK)=   -1.1951 1/cm

                        ... done with spin-spin calculation

Starting the spin-orbit zero-field-splitting computation (CP)...

---------------------------
COUPLED-PERTURBED SCF D-SOC
---------------------------

 Orbital range for operator   0: 0..405 to 406..2348
 Orbital range for operator   1: 0..403 to 404..2348
Reading Spin-Orbit Integrals                  ... done
Transforming integrals                       ... done
Max(Pert)=   1.0480e-01
Scaling perturbations by   9.5420e+00

Poples Solver
     CP-SCF ITERATION   0: 
     CP-SCF ITERATION   1:      0.005385001
     CP-SCF ITERATION   2:      0.001868966
     CP-SCF ITERATION   3:      0.000316041
     CP-SCF ITERATION   4:      0.000048621
     CP-SCF ITERATION   5:      0.000012297
     CP-SCF ITERATION   6:      0.000001944
ZFS-Tensor - using the prefactors
     -1/(2S(2*S-1)) for same spin
     -1/(2S(2*S-1)) for alpha->beta
     -1/(2S(2*S-1)) for beta->alpha
                        ... done with spin-orbit calculation

---------------------------
ZERO-FIELD-SPLITTING TENSOR
---------------------------

raw-matrix : 
   0.689347    -0.000001     0.000000  
  -0.000001     0.689562    -0.000077  
   0.000000    -0.000077    -0.363735  

Tensor is right-handed
diagonalized D matrix : 
  -0.363735     0.689347     0.689562  

  -0.000000    -0.999983     0.005897  
   0.000073    -0.005897    -0.999983  
   1.000000     0.000000     0.000073  


Direction X=1 Y=2 Z=0
D   =    -1.053189  cm**-1
E/D =     0.000102

SPIN-SPIN-PART
                  0          1          2    
      0      -0.044959  -0.000000  -0.000000
      1      -0.000000  -0.044932  -0.000006
      2      -0.000000  -0.000006   0.089891
Exchange and Coulomb parts of SS (raw)
Coulomb
                  0          1          2    
      0      -0.017680   0.000000  -0.000000
      1       0.000000  -0.017660  -0.000005
      2      -0.000000  -0.000005   0.035340
Exchange
                  0          1          2    
      0      -0.027279  -0.000000   0.000000
      1      -0.000000  -0.027272  -0.000001
      2       0.000000  -0.000001   0.054551
One-, two-, three- and four-center SS contributions (raw)
One-Center            (AA|AA):
                  0          1          2    
      0      -0.051188   0.000000   0.000002
      1       0.000000  -0.051175   0.000101
      2       0.000002   0.000101   0.102363
Two-Center-Coulomb    (AA|BB):
                  0          1          2    
      0       0.004449  -0.000000   0.000000
      1      -0.000000   0.004403  -0.000003
      2       0.000000  -0.000003  -0.008851
Two-Center-Exchange   (AB|BA):
                  0          1          2    
      0      -0.006467   0.000000   0.000000
      1       0.000000  -0.006477   0.000012
      2       0.000000   0.000012   0.012944
Two-Center-hybrid     (AA|AB):
                  0          1          2    
      0       0.004049  -0.000000  -0.000003
      1      -0.000000   0.004201  -0.000139
      2      -0.000003  -0.000139  -0.008250
Three-Center-Coulomb  (AA|BC):
                  0          1          2    
      0       0.005045   0.000000   0.000000
      1       0.000000   0.004956   0.000019
      2       0.000000   0.000019  -0.010001
Three-Center-Exchange (AB|AC):
                  0          1          2    
      0      -0.000926  -0.000000   0.000001
      1      -0.000000  -0.000921   0.000015
      2       0.000001   0.000015   0.001846
Four-Center           (AB|CD):
                  0          1          2    
      0       0.000080  -0.000000  -0.000000
      1      -0.000000   0.000080  -0.000011
      2      -0.000000  -0.000011  -0.000160
ALPHA-PART
                  0          1          2    
      0     -5046.762485  -0.000004   0.000007
      1       0.000005 -5046.764952   0.000616
      2       0.000011   0.000219 -5044.345865
BETA-PART
                  0          1          2    
      0     5046.908881   0.000004  -0.000007
      1      -0.000005 5046.911315  -0.000614
      2      -0.000011  -0.000237 5044.353096
ALPHA->BETA-PART
                  0          1          2    
      0     5024.200607   0.000001  -0.000005
      1       0.000002 5024.202471  -0.000079
      2      -0.000008  -0.000015 5021.193083
BETA->ALPHA-PART
                  0          1          2    
      0     -5023.612697  -0.000003   0.000006
      1      -0.000003 -5023.614341   0.000022
      2       0.000008  -0.000039 -5021.653939

Individual contributions (in cm**-1)
                                   D         E
SPIN-SPIN                  :   0.13484   -0.00001
  Exchange vs Coulomb
  Coulomb                  :   0.05301   -0.00001
  Exchange                 :   0.08183   -0.00000
  One through four center contributions:
  1-center                 :   0.15354   -0.00001
  2-center-Coulomb         :  -0.01328    0.00002
  2-center-Exchange        :   0.01942    0.00001
  2-center-Hybrid          :  -0.01238   -0.00008
  3-center-Coulomb         :  -0.01500    0.00004
  3-center-Exchange        :   0.00277   -0.00000
  4-center                 :  -0.00024   -0.00000
SPIN-ORBIT                 :  -1.18802   -0.00009
SOMO->VMO  (alpha->alpha)  :   2.41785    0.00123
DOMO->SOMO (beta ->beta )  :  -2.55700   -0.00122
SOMO->SOMO (alpha->beta )  :  -3.00846   -0.00093
DOMO->VMO  (beta ->alpha)  :   1.95958    0.00082


Maximum memory used throughout the entire EPRNMR-calculation: 6224.7 MB

Timings for individual modules:

Sum of individual times         ...    18155.513 sec (= 302.592 min)
GTO integral calculation        ...       16.626 sec (=   0.277 min)   0.1 %
Spin-Orbit-Coupling Matrices    ...      117.138 sec (=   1.952 min)   0.6 %
SCF iterations                  ...    15996.747 sec (= 266.612 min)  88.1 %
EPR/NMR calculation             ...     2025.002 sec (=  33.750 min)  11.2 %
                             ****ORCA TERMINATED NORMALLY****
TOTAL RUN TIME: 0 days 5 hours 2 minutes 41 seconds 500 msec
