
                                 *****************
                                 * O   R   C   A *
                                 *****************

                                            #,                                       
                                            ###                                      
                                            ####                                     
                                            #####                                    
                                            ######                                   
                                           ########,                                 
                                     ,,################,,,,,                         
                               ,,#################################,,                 
                          ,,##########################################,,             
                       ,#########################################, ''#####,          
                    ,#############################################,,   '####,        
                  ,##################################################,,,,####,       
                ,###########''''           ''''###############################       
              ,#####''   ,,,,##########,,,,          '''####'''          '####       
            ,##' ,,,,###########################,,,                        '##       
           ' ,,###''''                  '''############,,,                           
         ,,##''                                '''############,,,,        ,,,,,,###''
      ,#''                                            '''#######################'''  
     '                                                          ''''####''''         
             ,#######,   #######,   ,#######,      ##                                
            ,#'     '#,  ##    ##  ,#'     '#,    #''#        ######   ,####,        
            ##       ##  ##   ,#'  ##            #'  '#       #        #'  '#        
            ##       ##  #######   ##           ,######,      #####,   #    #        
            '#,     ,#'  ##    ##  '#,     ,#' ,#      #,         ##   #,  ,#        
             '#######'   ##     ##  '#######'  #'      '#     #####' # '####'        



                  #######################################################
                  #                        -***-                        #
                  #          Department of theory and spectroscopy      #
                  #    Directorship and core code : Frank Neese         #
                  #        Max Planck Institute fuer Kohlenforschung    #
                  #                Kaiser Wilhelm Platz 1               #
                  #                 D-45470 Muelheim/Ruhr               #
                  #                      Germany                        #
                  #                                                     #
                  #                  All rights reserved                #
                  #                        -***-                        #
                  #######################################################


                         Program Version 5.0.1 -  RELEASE  -


 With contributions from (in alphabetic order):
   Daniel Aravena         : Magnetic Suceptibility
   Michael Atanasov       : Ab Initio Ligand Field Theory (pilot matlab implementation)
   Alexander A. Auer      : GIAO ZORA, VPT2 properties, NMR spectrum
   Ute Becker             : Parallelization
   Giovanni Bistoni       : ED, misc. LED, open-shell LED, HFLD
   Martin Brehm           : Molecular dynamics
   Dmytro Bykov           : SCF Hessian
   Vijay G. Chilkuri      : MRCI spin determinant printing, contributions to CSF-ICE
   Dipayan Datta          : RHF DLPNO-CCSD density
   Achintya Kumar Dutta   : EOM-CC, STEOM-CC
   Dmitry Ganyushin       : Spin-Orbit,Spin-Spin,Magnetic field MRCI
   Miquel Garcia          : C-PCM and meta-GGA Hessian, CC/C-PCM, Gaussian charge scheme
   Yang Guo               : DLPNO-NEVPT2, F12-NEVPT2, CIM, IAO-localization
   Andreas Hansen         : Spin unrestricted coupled pair/coupled cluster methods
   Benjamin Helmich-Paris : MC-RPA, TRAH-SCF, COSX integrals
   Lee Huntington         : MR-EOM, pCC
   Robert Izsak           : Overlap fitted RIJCOSX, COSX-SCS-MP3, EOM
   Marcus Kettner         : VPT2
   Christian Kollmar      : KDIIS, OOCD, Brueckner-CCSD(T), CCSD density, CASPT2, CASPT2-K
   Simone Kossmann        : Meta GGA functionals, TD-DFT gradient, OOMP2, MP2 Hessian
   Martin Krupicka        : Initial AUTO-CI
   Lucas Lang             : DCDCAS
   Marvin Lechner         : AUTO-CI (C++ implementation), FIC-MRCC
   Dagmar Lenk            : GEPOL surface, SMD
   Dimitrios Liakos       : Extrapolation schemes; Compound Job, initial MDCI parallelization
   Dimitrios Manganas     : Further ROCIS development; embedding schemes
   Dimitrios Pantazis     : SARC Basis sets
   Anastasios Papadopoulos: AUTO-CI, single reference methods and gradients
   Taras Petrenko         : DFT Hessian,TD-DFT gradient, ASA, ECA, R-Raman, ABS, FL, XAS/XES, NRVS
   Peter Pinski           : DLPNO-MP2, DLPNO-MP2 Gradient
   Christoph Reimann      : Effective Core Potentials
   Marius Retegan         : Local ZFS, SOC
   Christoph Riplinger    : Optimizer, TS searches, QM/MM, DLPNO-CCSD(T), (RO)-DLPNO pert. Triples
   Tobias Risthaus        : Range-separated hybrids, TD-DFT gradient, RPA, STAB
   Michael Roemelt        : Original ROCIS implementation
   Masaaki Saitow         : Open-shell DLPNO-CCSD energy and density
   Barbara Sandhoefer     : DKH picture change effects
   Avijit Sen             : IP-ROCIS
   Kantharuban Sivalingam : CASSCF convergence, NEVPT2, FIC-MRCI
   Bernardo de Souza      : ESD, SOC TD-DFT
   Georgi Stoychev        : AutoAux, RI-MP2 NMR, DLPNO-MP2 response
   Willem Van den Heuvel  : Paramagnetic NMR
   Boris Wezisla          : Elementary symmetry handling
   Frank Wennmohs         : Technical directorship


 We gratefully acknowledge several colleagues who have allowed us to
 interface, adapt or use parts of their codes:
   Stefan Grimme, W. Hujo, H. Kruse, P. Pracht,  : VdW corrections, initial TS optimization,
                  C. Bannwarth, S. Ehlert          DFT functionals, gCP, sTDA/sTD-DF
   Ed Valeev, F. Pavosevic, A. Kumar             : LibInt (2-el integral package), F12 methods
   Garnet Chan, S. Sharma, J. Yang, R. Olivares  : DMRG
   Ulf Ekstrom                                   : XCFun DFT Library
   Mihaly Kallay                                 : mrcc  (arbitrary order and MRCC methods)
   Jiri Pittner, Ondrej Demel                    : Mk-CCSD
   Frank Weinhold                                : gennbo (NPA and NBO analysis)
   Christopher J. Cramer and Donald G. Truhlar   : smd solvation model
   Lars Goerigk                                  : TD-DFT with DH, B97 family of functionals
   V. Asgeirsson, H. Jonsson                     : NEB implementation
   FAccTs GmbH                                   : IRC, NEB, NEB-TS, DLPNO-Multilevel, CI-OPT
                                                   MM, QMMM, 2- and 3-layer-ONIOM, Crystal-QMMM,
                                                   LR-CPCM, SF, NACMEs, symmetry and pop. for TD-DFT,
                                                   nearIR, NL-DFT gradient (VV10), updates on ESD,
                                                   ML-optimized integration grids
   S Lehtola, MJT Oliveira, MAL Marques          : LibXC Library
   Liviu Ungur et al                             : ANISO software


 Your calculation uses the libint2 library for the computation of 2-el integrals
 For citations please refer to: http://libint.valeyev.net

 Your ORCA version has been built with support for libXC version: 5.1.0
 For citations please refer to: https://tddft.org/programs/libxc/

 This ORCA versions uses:
   CBLAS   interface :  Fast vector & matrix operations
   LAPACKE interface :  Fast linear algebra routines
   SCALAPACK package :  Parallel linear algebra routines
   Shared memory     :  Shared parallel matrices
   BLAS/LAPACK       :  OpenBLAS 0.3.15  USE64BITINT DYNAMIC_ARCH NO_AFFINITY SkylakeX SINGLE_THREADED
        Core in use  :  SkylakeX
   Copyright (c) 2011-2014, The OpenBLAS Project


================================================================================

----- Orbital basis set information -----
Your calculation utilizes the basis: def2-SVP
   F. Weigend and R. Ahlrichs, Phys. Chem. Chem. Phys. 7, 3297 (2005).

The basis set includes element-specific modifications.

----- AuxJ basis set information -----
Your calculation utilizes the auxiliary basis: def2/J
   F. Weigend, Phys. Chem. Chem. Phys. 8, 1057 (2006).

The basis set includes element-specific modifications.

================================================================================
                                        WARNINGS
                       Please study these warnings very carefully!
================================================================================


INFO   : the flag for use of the SHARK integral package has been found!


WARNING: TRAH-SCF with ROHF wave function is not implemented yet
  ===> : Turning TRAH off

================================================================================
                                       INPUT FILE
================================================================================
NAME = zfs_atom42.inp
|  1> # input to generate an atomic fitting density for Mo
|  2> # this file is use internally by ORCA
|  3> #
|  4> # atomic ground state (S=5): 1s2 2s2 2p6 3s2 3p6 4s2 3d10 4p6 5s2 4d4 
|  5> #
|  6> ! RHF AllowRHF def2-SVP def2/J  NoMulliken NoLoewdin NoMayer NoPrintMOs 
|  7> 
|  8> %output print[p_atomdensfit] 2 end
|  9> 
| 10> %scf
| 11>   guess hcore
| 12>   maxiter 1000
| 13>   maxdisk 500000
| 14>   SCFMode Conventional
| 15>   lshift 0.600000
| 16>   hftyp rohf
| 17>   rohf_case sahf
| 18>   rohf_numop   2
| 19>   rohf_norb[1] 5
| 20>   rohf_nel[1]  4
| 21> end
| 22> 
| 23> %basis
| 24>   NewECP 42
| 25>     N_core 28
| 26>     lmax f
| 27>     s 4
| 28>       1       9.7145938000    180.1031085000  2
| 29>       2       4.6805004000     24.9972279000  2
| 30>       3       9.4500000000     24.8051771000  2
| 31>       4       4.7200000000      4.1537815000  2
| 32>     p 4
| 33>       1       8.1421366000    123.7727523000  2
| 34>       2       4.6259863000     19.5302280000  2
| 35>       3       9.4500000000     24.8051771000  2
| 36>       4       4.7200000000      4.1537815000  2
| 37>     d 4
| 38>       1       6.6184148000     48.3750223000  2
| 39>       2       3.2487516000      8.8920527000  2
| 40>       3       9.4500000000     24.8051771000  2
| 41>       4       4.7200000000      4.1537815000  2
| 42>     f 2
| 43>       1       9.4500000000    -24.8051771000  2
| 44>       2       4.7200000000     -4.1537815000  2
| 45>   end
| 46>   NewGTO 42
| 47>     s 2 
| 48>      1      14.0000000000     -2.0770233737
| 49>      2      12.5000000000      3.0616178399
| 50>     s 1 
| 51>      1       4.0921501803      1.0000000000
| 52>     s 1 
| 53>      1       0.9705360259      1.0000000000
| 54>     s 1 
| 55>      1       0.4421762017      1.0000000000
| 56>     s 1 
| 57>      1       0.0929150243      1.0000000000
| 58>     s 1 
| 59>      1       0.0350163144      1.0000000000
| 60>     p 4 
| 61>      1       8.8931117915      0.0830010811
| 62>      2       5.4689112270     -0.2792276027
| 63>      3       1.3548473007      0.5492197283
| 64>      4       0.6549486746      0.5789213489
| 65>     p 1 
| 66>      1       0.3042819747      1.0000000000
| 67>     p 1 
| 68>      1       0.1000000000      1.0000000000
| 69>     p 1 
| 70>      1       0.0330000000      1.0000000000
| 71>     d 3 
| 72>      1       5.0044445497     -0.0359172347
| 73>      2       1.7736823324      0.3487122377
| 74>      3       0.7695059170      0.7275979769
| 75>     d 1 
| 76>      1       0.3153087894      1.0000000000
| 77>     d 1 
| 78>      1       0.1175437439      1.0000000000
| 79>   end
| 80>   NewAuxGTO 42
| 81>     S 1
| 82>      1 1310.72 1.0
| 83>     S 1
| 84>      1  655.36 1.0
| 85>     S 1
| 86>      1  327.68 1.0
| 87>     S 1
| 88>      1  163.84 1.0
| 89>     S 1
| 90>      1   81.82 1.0
| 91>     S 1
| 92>      1   40.96 1.0
| 93>     S 1
| 94>      1   20.48 1.0
| 95>     S 1
| 96>      1   10.24 1.0
| 97>     S 1
| 98>      1    5.12 1.0
| 99>     S 1
|100>      1    2.56 1.0
|101>     S 1
|102>      1    1.28 1.0
|103>     S 1
|104>      1    0.64 1.0
|105>     S 1
|106>      1    0.32 1.0
|107>     S 1
|108>      1    0.16 1.0
|109>     S 1
|110>      1    0.08 1.0
|111>     S 1
|112>      1    0.04 1.0
|113>     S 1
|114>      1    0.02 1.0
|115>     S 1
|116>      1    0.01 1.0
|117>   end
|118> end
|119> 
|120> * xyz 0 5
|121> 42  0.0 0.0 0.0
|122> *
|123> 
|124> 
|125>                          ****END OF INPUT****
================================================================================

                       ****************************
                       * Single Point Calculation *
                       ****************************

---------------------------------
CARTESIAN COORDINATES (ANGSTROEM)
---------------------------------
  Mo     0.000000    0.000000    0.000000

----------------------------
CARTESIAN COORDINATES (A.U.)
----------------------------
  NO LB      ZA    FRAG     MASS         X           Y           Z
   0 Mo   14.0000*   0    95.940    0.000000    0.000000    0.000000
* core charge reduced due to ECP

--------------------------------
INTERNAL COORDINATES (ANGSTROEM)
--------------------------------
 Mo     0   0   0     0.000000000000     0.00000000     0.00000000

---------------------------
INTERNAL COORDINATES (A.U.)
---------------------------
 Mo     0   0   0     0.000000000000     0.00000000     0.00000000

---------------------
BASIS SET INFORMATION
---------------------
There are 1 groups of distinct atoms

 Group   1 Type Mo  : 7s7p5d contracted to 6s4p3d pattern {211111/4111/311}

Atom   0Mo   basis set group =>   1
---------------------------------
AUXILIARY/J BASIS SET INFORMATION
---------------------------------
There are 1 groups of distinct atoms

 Group   1 Type Mo  : 18s contracted to 18s pattern {111111111111111111}

Atom   0Mo   basis set group =>   1
-------------------------
ECP PARAMETER INFORMATION
-------------------------

 Group 1, Type Mo ECP (replacing 28 core electrons, lmax=3)

Atom   0Mo   ECP group =>   1

------------------------------------------------------------------------------
                           ORCA GTO INTEGRAL CALCULATION
------------------------------------------------------------------------------
------------------------------------------------------------------------------
                   ___                                                        
                  /   \      - P O W E R E D   B Y -                         
                 /     \                                                     
                 |  |  |   _    _      __       _____    __    __             
                 |  |  |  | |  | |    /  \     |  _  \  |  |  /  |          
                  \  \/   | |  | |   /    \    | | | |  |  | /  /          
                 / \  \   | |__| |  /  /\  \   | |_| |  |  |/  /          
                |  |  |   |  __  | /  /__\  \  |    /   |      \           
                |  |  |   | |  | | |   __   |  |    \   |  |\   \          
                \     /   | |  | | |  |  |  |  | |\  \  |  | \   \       
                 \___/    |_|  |_| |__|  |__|  |_| \__\ |__|  \__/        
                                                                              
                      - O R C A' S   B I G   F R I E N D -                    
                                      &                                       
                       - I N T E G R A L  F E E D E R -                       
                                                                              
 v1 FN, 2020, v2 2021                                                         
------------------------------------------------------------------------------


Reading SHARK input file zfs_atom42.SHARKINP.tmp ... ok
----------------------
SHARK INTEGRAL PACKAGE
----------------------

Number of atoms                             ...      1
Number of basis functions                   ...     33
Number of shells                            ...     13
Maximum angular momentum                    ...      2
Integral batch strategy                     ... SHARK/LIBINT Hybrid
RI-J (if used) integral strategy            ... SPLIT-RIJ (Revised 2003 algorithm where possible)
Printlevel                                  ...      1
Contraction scheme used                     ... SEGMENTED contraction
Coulomb Range Separation                    ... NOT USED
Exchange Range Separation                   ... NOT USED
Finite Nucleus Model                        ... NOT USED
Auxiliary Coulomb fitting basis             ... AVAILABLE
   # of basis functions in Aux-J            ...     18
   # of shells in Aux-J                     ...     18
   Maximum angular momentum in Aux-J        ...      0
Auxiliary J/K fitting basis                 ... NOT available
Auxiliary Correlation fitting basis         ... NOT available
Auxiliary 'external' fitting basis          ... NOT available
Integral threshold                          ...     1.000000e-10
Primitive cut-off                           ...     1.000000e-11
Primitive pair pre-selection threshold      ...     1.000000e-11

Calculating pre-screening integrals         ... done (  0.2 sec) Dimension = 13
Organizing shell pair data                  ... done (  0.0 sec)
Shell pair information
Total number of shell pairs                 ...        91
Shell pairs after pre-screening             ...        91
Total number of primitive shell pairs       ...       200
Primitive shell pairs kept                  ...       200
          la=0 lb=0:     21 shell pairs
          la=1 lb=0:     24 shell pairs
          la=1 lb=1:     10 shell pairs
          la=2 lb=0:     18 shell pairs
          la=2 lb=1:     12 shell pairs
          la=2 lb=2:      6 shell pairs

Calculating one electron integrals          ... done (  0.0 sec)
Calculating ECP integrals                   ... done (  0.0 sec)
Calculating RI/J V-Matrix + Cholesky decomp.... done (  0.0 sec)
Calculating Nuclear repulsion               ... done (  0.0 sec) ENN=      0.000000000000 Eh
Calculating 4-index integrals               ... 
    -> SHARK/Ints2Disk: Thresh =     1.000000e-10 TCut=    1.000000e-11 
    -> calling libint FockFlag=2 Lmax_loc=2
    -> L=0 1 2 2:     0.000 sec done=       144 (=100.0%) skipped=         0 
    -> L=0 2 2 2:     0.001 sec done=       108 (=100.0%) skipped=         0 
    -> L=1 1 1 2:     0.001 sec done=       120 (=100.0%) skipped=         0 
    -> L=1 1 2 2:     0.001 sec done=        60 (=100.0%) skipped=         0 
    -> L=1 2 1 2:     0.001 sec done=        78 (=100.0%) skipped=         0 
    -> L=1 2 2 2:     0.002 sec done=        72 (=100.0%) skipped=         0 
    -> L=2 2 2 2:     0.001 sec done=        21 (=100.0%) skipped=         0 
    ->Total LIBINT loop time =    0.006 sec
    -> L=0 0 0 0:     0.000 sec done=       231 (=100.0%) skipped=         0 
    -> L=1 0 0 0:     0.000 sec done=       504 (=100.0%) skipped=         0 
    -> L=1 0 1 0:     0.000 sec done=       300 (=100.0%) skipped=         0 
    -> L=1 1 0 0:     0.000 sec done=       210 (=100.0%) skipped=         0 
    -> L=1 1 1 0:     0.000 sec done=       240 (=100.0%) skipped=         0 
    -> L=1 1 1 1:     0.000 sec done=        55 (=100.0%) skipped=         0 
    -> L=2 0 0 0:     0.000 sec done=       378 (=100.0%) skipped=         0 
    -> L=2 0 1 0:     0.000 sec done=       432 (=100.0%) skipped=         0 
    -> L=2 0 1 1:     0.000 sec done=       180 (=100.0%) skipped=         0 
    -> L=2 0 2 0:     0.000 sec done=       171 (=100.0%) skipped=         0 
    -> L=2 1 0 0:     0.000 sec done=       252 (=100.0%) skipped=         0 
    -> L=2 1 1 0:     0.001 sec done=       288 (=100.0%) skipped=         0 
    -> L=2 1 2 0:     0.001 sec done=       216 (=100.0%) skipped=         0 
    -> L=2 2 0 0:     0.000 sec done=       126 (=100.0%) skipped=         0 
    ->Total SHARK integral loop time =    0.004 sec
    -> Total Integral generation matrix time =    0.029 sec
    -> Number of small integrals   =         0
    -> Number of medium integrals  =         0
    -> Number of large integrals   =     19137
    -> Number of MB stored         =         0 MB


SHARK setup successfully completed in   0.3 seconds

Maximum memory used throughout the entire GTOINT-calculation: 31.3 MB
-------------------------------------------------------------------------------
                                 ORCA SCF
-------------------------------------------------------------------------------

------------
SCF SETTINGS
------------
Hamiltonian:
 Ab initio Hamiltonian  Method          .... Hartree-Fock(GTOs)


General Settings:
 Integral files         IntName         .... zfs_atom42
 Hartree-Fock type      HFTyp           .... ROHF
 Total Charge           Charge          ....    0
 Multiplicity           Mult            ....    5
 Number of Electrons    NEL             ....   14
 Basis Dimension        Dim             ....   33
 Nuclear Repulsion      ENuc            ....      0.0000000000 Eh

Convergence Acceleration:
 DIIS                   CNVDIIS         .... on
   Start iteration      DIISMaxIt       ....    12
   Startup error        DIISStart       ....  0.200000
   # of expansion vecs  DIISMaxEq       ....     5
   Bias factor          DIISBfac        ....   1.050
   Max. coefficient     DIISMaxC        ....  10.000
 Trust-Rad. Augm. Hess. CNVTRAH         .... off
 SOSCF                  CNVSOSCF        .... off
 Level Shifting         CNVShift        .... on
   Level shift para.    LevelShift      ....    0.6000
   Turn off err/grad.   ShiftErr        ....    0.0010
 Zerner damping         CNVZerner       .... off
 Static damping         CNVDamp         .... on
   Fraction old density DampFac         ....    0.7000
   Max. Damping (<1)    DampMax         ....    0.9800
   Min. Damping (>=0)   DampMin         ....    0.0000
   Turn off err/grad.   DampErr         ....    0.1000
 Fernandez-Rico         CNVRico         .... off

SCF Procedure:
 Maximum # iterations   MaxIter         ....  1000
 SCF integral mode      SCFMode         .... Conventional
 Integral Threshold     Thresh          ....  1.000e-10 Eh
 Primitive CutOff       TCut            ....  1.000e-11 Eh
 Integral Buffer length BufferLength    .... 1048576
 Integral index format  IndFormat       ....     0
 Integral value format  ValFormat       ....     0
 Integral Storage       Thresh          ....  1.000e-10 Eh

Convergence Tolerance:
 Convergence Check Mode ConvCheckMode   .... Total+1el-Energy
 Convergence forced     ConvForced      .... 0
 Energy Change          TolE            ....  1.000e-06 Eh
 1-El. energy change                    ....  1.000e-03 Eh
 DIIS Error             TolErr          ....  1.000e-06


Diagonalization of the overlap matrix:
Smallest eigenvalue                        ... 1.942e-02
Time for diagonalization                   ...    0.171 sec
Threshold for overlap eigenvalues          ... 1.000e-08
Number of eigenvalues below threshold      ... 0
Time for construction of square roots      ...    0.019 sec
Total time needed                          ...    0.190 sec

--------------------
INITIAL GUESS: HCORE
--------------------
AVERAGE-CONFIGURATION (SAHF) CASE FOUND

-------------------
FINAL ROHF SETTINGS
-------------------
Number of operators             ... 2
  operator   0:   5 orbitals  10 electrons n(mue)= 2.000
  operator   1:   5 orbitals   4 electrons n(mue)= 0.800
Vector coupling coefficients a and b (Zerner convention):
   1.000    1.000           1.000    1.000 
   1.000    0.938           1.000    1.875 

                      -----------------
                      INTIAL GUESS DONE 
                      -----------------

 InCore treatment chosen:
   Memory dedicated               ...    1024 MB
   Memory needed                  ...      0 MB
   Number of tiny    integrals    ...       0
   Number of small   integrals    ...       0
   Number of regular integrals    ...   19137

--------------
SCF ITERATIONS
--------------
ITER       Energy         Delta-E        Max-DP      RMS-DP      [F,P]     Damp
  0    -61.7424174907   0.000000000000 2.36100235  0.09229073  0.8043631 0.7000
  1    -65.6251195385  -3.882702047830 1.65174960  0.06400533  0.2683575 0.7000
                            ****Activating DIIS****
  2    -65.7504787268  -0.125359188288 3.84668938  0.14518090  0.0559403 0.0000
  3    -65.8663301407  -0.115851413963 0.01078703  0.00051953  0.2176316 0.7000
  4    -65.8944988481  -0.028168707354 0.01162406  0.00052353  0.1984607 0.7000
  5    -65.9043900562  -0.009891208063 0.00845724  0.00040571  0.1945576 0.7000
  6    -65.8728256561   0.031564400081 0.00482193  0.00024725  0.2194613 0.7000
  7    -65.8706757712   0.002149884853 0.51170480  0.02749924  0.2193777 0.7000
  8    -66.9093814625  -1.038705691252 1.19280133  0.06907381  0.0696237 0.0000
  9    -67.1552499912  -0.245868528713 0.00064771  0.00003016  0.1526269 0.7000
 10    -67.1533909356   0.001859055536 0.00048431  0.00002367  0.1545615 0.7000
 11    -67.1529834467   0.000407488905 0.00052069  0.00002626  0.1547259 0.7000
 12    -67.1522228168   0.000760629970 0.00256322  0.00013468  0.1553404 0.7000
 13    -67.1455166228   0.006706193927 0.04237231  0.00231500  0.1622946 0.7000
 14    -67.2379125827  -0.092395959866 0.29363631  0.01190278  0.0550817 0.0000
 15    -67.3148939861  -0.076981403414 0.13418613  0.00431144  0.0380525 0.0000
 16    -67.3269212455  -0.012027259374 0.22882768  0.00664568  0.0275249 0.0000
 17    -67.3414103773  -0.014489131836 0.16191579  0.00480090  0.0226730 0.0000
 18    -67.3485355137  -0.007125136379 0.11941136  0.00377754  0.0182154 0.0000
 19    -67.3526020808  -0.004066567078 0.12221598  0.00427049  0.0140459 0.0000
 20    -67.3557719696  -0.003169888813 0.10611780  0.00327173  0.0090450 0.0000
 21    -67.3572231790  -0.001451209374 0.08125295  0.00235959  0.0052276 0.0000
 22    -67.3578136474  -0.000590468415 0.07178351  0.00202790  0.0039846 0.0000
 23    -67.3580517306  -0.000238083201 0.03418435  0.00097364  0.0038484 0.0000
 24    -67.3580934848  -0.000041754191 0.01763985  0.00052546  0.0038079 0.0000
 25    -67.3581003398  -0.000006855000 0.01290833  0.00041906  0.0037837 0.0000
 26    -67.3580984124   0.000001927426 0.00330015  0.00010350  0.0037612 0.0000
 27    -67.3580947410   0.000003671393 0.00058256  0.00004748  0.0037512 0.0000
 28    -67.3581001088  -0.000005367835 0.00452284  0.00012152  0.0037495 0.0000
 29    -67.3581150682  -0.000014959389 0.00522501  0.00018087  0.0037504 0.0000
 30    -67.3581377550  -0.000022686791 0.00975384  0.00026553  0.0037474 0.0000
 31    -67.3581657913  -0.000028036321 0.00883095  0.00023792  0.0037570 0.0000
 32    -67.3581873995  -0.000021608200 0.00640594  0.00017382  0.0037723 0.0000
 33    -67.3582013814  -0.000013981872 0.00371440  0.00010295  0.0037879 0.0000
 34    -67.3582089228  -0.000007541386 0.00075494  0.00002808  0.0037999 0.0000
 35    -67.3582104101  -0.000001487363 0.00073596  0.00002267  0.0038053 0.0000
 36    -67.3582117966  -0.000001386459 0.00171788  0.00004779  0.0038087 0.0000
 37    -67.3582149716  -0.000003175036 0.00209906  0.00005853  0.0038139 0.0000
 38    -67.3582187531  -0.000003781454 0.00189836  0.00005350  0.0038206 0.0000
 39    -67.3582220835  -0.000003330414 0.00148083  0.00004233  0.0038271 0.0000
 40    -67.3582246315  -0.000002547979 0.00124296  0.00003577  0.0038326 0.0000
 41    -67.3582267384  -0.000002106911 0.00122447  0.00003524  0.0038373 0.0000
 42    -67.3582287738  -0.000002035385 0.00123309  0.00003558  0.0038420 0.0000
 43    -67.3582307874  -0.000002013662 0.00117567  0.00003413  0.0038467 0.0000
 44    -67.3582326855  -0.000001898125 0.00107400  0.00003142  0.0038513 0.0000
 45    -67.3582344108  -0.000001725264 0.00098023  0.00002890  0.0038557 0.0000
 46    -67.3582359831  -0.000001572306 0.00091451  0.00002716  0.0038598 0.0000
 47    -67.3582374493  -0.000001466186 0.00086217  0.00002581  0.0038637 0.0000
 48    -67.3582388338  -0.000001384449 0.00080858  0.00002442  0.0038675 0.0000
 49    -67.3582401395  -0.000001305718 0.00075203  0.00002294  0.0038712 0.0000
 50    -67.3582413664  -0.000001226904 0.00069717  0.00002151  0.0038747 0.0000
 51    -67.3582425200  -0.000001153636 0.00064692  0.00002020  0.0038780 0.0000
 52    -67.3582436093  -0.000001089248 0.00060070  0.00001901  0.0038812 0.0000
 53    -67.3582446417  -0.000001032409 0.00055707  0.00001790  0.0038842 0.0000
                 **** Energy Check signals convergence ****

               *****************************************************
               *                     SUCCESS                       *
               *           SCF CONVERGED AFTER  54 CYCLES          *
               *****************************************************


----------------
TOTAL SCF ENERGY
----------------

Total Energy       :          -67.35824562 Eh           -1832.91105 eV

Components:
Nuclear Repulsion  :            0.00000000 Eh               0.00000 eV
Electronic Energy  :          -67.35824562 Eh           -1832.91105 eV
One Electron Energy:         -115.10128868 Eh           -3132.06530 eV
Two Electron Energy:           47.74304305 Eh            1299.15425 eV

Virial components:
Potential Energy   :          -90.87014717 Eh           -2472.70241 eV
Kinetic Energy     :           23.51190155 Eh             639.79137 eV
Virial Ratio       :            3.86485742


---------------
SCF CONVERGENCE
---------------

  Last Energy change         ...   -9.8067e-07  Tolerance :   1.0000e-06
  Last MAX-Density change    ...    5.1545e-04  Tolerance :   1.0000e-05
  Last RMS-Density change    ...    1.6837e-05  Tolerance :   1.0000e-06
  Last DIIS Error            ...    3.8871e-03  Tolerance :   1.0000e-06

             **** THE GBW FILE WAS UPDATED (zfs_atom42.gbw) ****
             **** DENSITY zfs_atom42.scfp WAS UPDATED ****
             **** ENERGY FILE WAS UPDATED (zfs_atom42.en.tmp) ****
             **** THE GBW FILE WAS UPDATED (zfs_atom42.gbw) ****
             **** DENSITY zfs_atom42.scfp WAS UPDATED ****
----------------
ORBITAL ENERGIES
----------------

  NO   OCC          E(Eh)            E(eV) 
   0   2.0000      -3.060249       -83.2736 
   1   2.0000      -1.903523       -51.7975 
   2   2.0000      -1.902800       -51.7778 
   3   2.0000      -1.901438       -51.7407 
   4   2.0000      -0.367863       -10.0101 
   5   0.8000      -0.405102       -11.0234 
   6   0.8000      -0.402756       -10.9595 
   7   0.8000      -0.401246       -10.9185 
   8   0.8000      -0.302606        -8.2343 
   9   0.8000      -0.167635        -4.5616 
  10   0.0000      -0.023346        -0.6353 
  11   0.0000      -0.022804        -0.6205 
  12   0.0000      -0.045948        -1.2503 
  13   0.0000       0.097315         2.6481 
  14   0.0000       0.136728         3.7206 
  15   0.0000       0.148700         4.0463 
  16   0.0000       0.149548         4.0694 
  17   0.0000       0.306339         8.3359 
  18   0.0000       0.297229         8.0880 
  19   0.0000       0.295508         8.0412 
  20   0.0000       0.297906         8.1064 
  21   0.0000       0.335369         9.1258 
  22   0.0000       1.266970        34.4760 
  23   0.0000       1.247661        33.9506 
  24   0.0000       1.268934        34.5295 
  25   0.0000       1.565343        42.5952 
  26   0.0000       1.552962        42.2582 
  27   0.0000       1.550725        42.1974 
  28   0.0000       1.554136        42.2902 
  29   0.0000       1.568577        42.6832 
  30   0.0000       1.587828        43.2070 
  31   0.0000      24.264785       660.2784 
  32   0.0000      85.602649      2329.3665 

Warning: MO coefficients are modified such that the real solid harmonic m components
have the correct order within each shell (0, +1, -1, +2, -2, ...) and all s orbitals
come before all p orbitals etc. (with increasing orbital energy within each block of given angular momentum).

CleanUpVectors: The p-vectors have cracked symmetry
CleanUpVectors: The p-vectors have cracked symmetry
CleanUpVectors: The p-vectors have cracked symmetry
CleanUpVectors: The d-vectors have cracked symmetry at i=4
CleanUpVectors: The d-vectors have cracked symmetry at i=6
CleanUpVectors: The d-vectors have cracked symmetry at i=7
CleanUpVectors: The d-vectors have cracked symmetry at i=8
CleanUpVectors: The p-vectors have cracked symmetry
CleanUpVectors: The p-vectors have cracked symmetry
CleanUpVectors: The p-vectors have cracked symmetry
CleanUpVectors: The d-vectors have cracked symmetry at i=12
CleanUpVectors: The p-vectors have cracked symmetry
CleanUpVectors: The p-vectors have cracked symmetry
CleanUpVectors: The p-vectors have cracked symmetry
CleanUpVectors: The d-vectors have cracked symmetry at i=17
CleanUpVectors: The d-vectors have cracked symmetry at i=18
CleanUpVectors: The d-vectors have cracked symmetry at i=19
CleanUpVectors: The d-vectors have cracked symmetry at i=20
CleanUpVectors: The d-vectors have cracked symmetry at i=21
CleanUpVectors: The p-vectors have cracked symmetry
CleanUpVectors: The p-vectors have cracked symmetry
CleanUpVectors: The p-vectors have cracked symmetry
CleanUpVectors: The d-vectors have cracked symmetry at i=25
CleanUpVectors: The d-vectors have cracked symmetry at i=26
CleanUpVectors: The d-vectors have cracked symmetry at i=28
--------------------------
ATOM BASIS FOR ELEMENT Mo
--------------------------
 NewGTO Mo
 S 7
    1         14.000000000000        -0.287430895178
    2         12.500000000000         0.423684955864
    3          4.092150180300        -0.621649828432
    4          0.970536025900         0.839720700525
    5          0.442176201700         0.451281232722
    6          0.092915024300         0.013559750965
    7          0.035016314400        -0.003203277096
 P 19
    1          8.893111791500        -0.037458516910
    2          5.468911227000         0.126015851106
    3          1.354847300700        -0.247863717043
    4          0.654948674600        -0.261268104585
    5          8.893111791500        -0.019175288341
    6          5.468911227000         0.064508434390
    7          1.354847300700        -0.126883246735
    8          0.654948674600        -0.133745050602
    9          8.893111791500        -0.057913882129
   10          5.468911227000         0.194830648658
   11          1.354847300700        -0.383217256767
   12          0.654948674600        -0.403941518809
   13          0.304281974700        -0.089850871519
   14          0.304281974700        -0.045995317251
   15          0.304281974700        -0.138916679344
   16          0.100000000000        -0.004573167149
   17          0.100000000000        -0.002341037658
   18          0.100000000000        -0.007070484500
   19          0.033000000000         0.000253815705
 D 19
    1         14.000000000000        -0.000002977992
    2         12.500000000000         0.000004916444
    3          4.092150180300        -0.000024120907
    4          0.970536025900         0.000146368085
    5          0.442176201700         0.000740208896
    6          0.092915024300        -0.006357954580
    7          0.035016314400        -0.013541329953
    8          5.004444549700         0.003311454211
    9          1.773682332400        -0.032150153476
   10          0.769505917000        -0.067082207326
   11          5.004444549700        -0.013056189323
   12          1.773682332400         0.126759563556
   13          0.769505917000         0.264487425519
   14          5.004444549700        -0.011349670645
   15          1.773682332400         0.110191363031
   16          0.769505917000         0.229917405084
   17          5.004444549700         0.010745014123
   18          1.773682332400        -0.104320890798
   19          0.769505917000        -0.217668498225
 D 19
    1         14.000000000000        -0.000167838921
    2         12.500000000000         0.000277089646
    3          4.092150180300        -0.001291815918
    4          0.970536025900         0.007891846573
    5          0.442176201700         0.023716318695
    6          0.092915024300        -0.186866965080
    7          0.035016314400        -0.333920763453
    8          5.004444549700         0.001886508745
    9          1.773682332400        -0.018315683025
   10          0.769505917000        -0.038216192246
   11          5.004444549700        -0.011771073028
   12          1.773682332400         0.114282662627
   13          0.769505917000         0.238454017762
   14          5.004444549700         0.010452720856
   15          1.773682332400        -0.101483082154
   16          0.769505917000        -0.211747329981
   17          5.004444549700        -0.002389699947
   18          1.773682332400         0.023201051607
   19          0.769505917000         0.048409652390
 P 19
    1          8.893111791500         0.008452945960
    2          5.468911227000        -0.028436928830
    3          1.354847300700         0.055933303780
    4          0.654948674600         0.058958158282
    5          8.893111791500        -0.008870356093
    6          5.468911227000         0.029841156696
    7          1.354847300700        -0.058695314554
    8          0.654948674600        -0.061869537682
    9          8.893111791500        -0.002530363671
   10          5.468911227000         0.008512508179
   11          1.354847300700        -0.016743464415
   12          0.654948674600        -0.017648945413
   13          0.304281974700        -0.003583841956
   14          0.304281974700         0.003760813625
   15          0.304281974700         0.001072812193
   16          0.100000000000        -0.023222217494
   17          0.100000000000         0.024368940655
   18          0.100000000000         0.006951500197
   19          0.033000000000        -0.661542353402
 P 19
    1          8.893111791500        -0.010614020913
    2          5.468911227000         0.035707096526
    3          1.354847300700        -0.070233177746
    4          0.654948674600        -0.074031364686
    5          8.893111791500        -0.005433394813
    6          5.468911227000         0.018278723459
    7          1.354847300700        -0.035952876559
    8          0.654948674600        -0.037897196189
    9          8.893111791500        -0.016410130641
   10          5.468911227000         0.055206045248
   11          1.354847300700        -0.108586145776
   12          0.654948674600        -0.114458448496
   13          0.304281974700        -0.180358749970
   14          0.304281974700        -0.092326961161
   15          0.304281974700        -0.278849144303
   16          0.100000000000         0.890230225924
   17          0.100000000000         0.455715353466
   18          0.100000000000         1.376367582789
   19          0.033000000000        -0.575436246322
 D 19
    1          5.004444549700        -0.004249722063
    2          1.773682332400         0.041259582000
    3          0.769505917000         0.086089288374
    4          5.004444549700        -0.004337909896
    5          1.773682332400         0.042115777552
    6          0.769505917000         0.087875764684
    7          5.004444549700        -0.001186043742
    8          1.773682332400         0.011515028112
    9          0.769505917000         0.024026432837
   10          5.004444549700        -0.005608877845
   11          1.773682332400         0.054455315408
   12          0.769505917000         0.113622560492
   13          5.004444549700        -0.003430133938
   14          1.773682332400         0.033302387863
   15          0.769505917000         0.069486377063
   16          0.315308789400         0.270964927826
   17          0.315308789400         0.276587839031
   18          0.315308789400         0.075622888312
   19          0.315308789400         0.357625547668
 P 19
    1          8.893111791500        -0.060858331913
    2          5.468911227000         0.204736202218
    3          1.354847300700        -0.402700736847
    4          0.654948674600        -0.424478659025
    5          8.893111791500        -0.076443301485
    6          5.468911227000         0.257166286670
    7          1.354847300700        -0.505826776176
    8          0.654948674600        -0.533181720329
    9          8.893111791500         0.064673357494
   10          5.468911227000        -0.217570498268
   11          1.354847300700         0.427944833496
   12          0.654948674600         0.451087948040
   13          0.304281974700         1.224054551722
   14          0.304281974700         1.537517841681
   15          0.304281974700        -1.300786845903
   16          0.100000000000        -0.774877899240
   17          0.100000000000        -0.973313316413
   18          0.100000000000         0.823452661562
   19          0.033000000000         0.254753578262
 D 19
    1          5.004444549700        -0.020507746752
    2          1.773682332400         0.199105034667
    3          0.769505917000         0.415438303427
    4          5.004444549700        -0.020933311938
    5          1.773682332400         0.203236749975
    6          0.769505917000         0.424059244634
    7          5.004444549700        -0.005723453045
    8          1.773682332400         0.055567699892
    9          0.769505917000         0.115943582277
   10          5.004444549700        -0.027066580987
   11          1.773682332400         0.262783259954
   12          0.769505917000         0.548304727034
   13          5.004444549700        -0.016552686753
   14          1.773682332400         0.160706259423
   15          0.769505917000         0.335318169511
   16          0.315308789400        -0.770800483318
   17          0.315308789400        -0.786795699922
   18          0.315308789400        -0.215120677413
   19          0.315308789400        -1.017319647989
 end
-------------------------------------------
RADIAL EXPECTATION VALUES <R**-3> TO <R**3>
-------------------------------------------
   0 :     0.000000     1.052541     0.975374     1.131878     1.413079     1.944081
   1 :     0.986462     0.882550     0.887986     1.258787     1.770707     2.782810
   2 :     0.986207     0.882361     0.887871     1.259030     1.771543     2.785236
   3 :     0.991067     0.885946     0.890054     1.254553     1.756393     2.742235
   4 :     0.467709     0.500648     0.645280     1.865771     4.183852    55.901762
   5 :     0.000000     0.158053     0.338387     3.467470    13.898193    62.795995
   6 :     0.000000     0.086116     0.230157     5.650950    36.557961   255.698860
   7 :     0.000000     0.080722     0.085693     0.284697     0.946192     4.514095
   8 :     0.000000     0.558497     0.588329     1.917106     6.415719    31.195808
   9 :     0.462579     0.496868     0.641959     1.883651     4.292049    56.230639
  10 :     0.464923     0.498360     0.643594     1.871800     4.212599    56.496511
  11 :     0.464519     0.498005     0.643311     1.873019     4.218968    56.638770
  12 :     0.054419     0.092950     0.261986     4.556394    23.758471   139.634805
  13 :     0.022579     0.051368     0.198995     5.787990    37.119332   259.106254
  14 :     0.022529     0.051276     0.198821     5.792109    37.166009   259.537091
  15 :     0.332781     0.380469     0.547244     2.313293     6.600500   111.604924
  16 :     0.042811     0.071193     0.214495     6.084305    43.244142   336.914727
  17 :     0.070381     0.108435     0.273277     4.877837    30.001124   217.623733
  18 :     0.070502     0.108565     0.273457     4.874103    29.958628   217.229318
  19 :     0.114988     0.152338     0.320651     3.866593    16.564870   376.203744
  20 :     0.112710     0.150604     0.319352     3.874445    16.620371   377.854148
  21 :     0.113808     0.151854     0.320441     3.867894    16.578872   376.420173
  22 :     0.112917     0.150805     0.319526     3.873667    16.616499   377.775419
  23 :     0.205873     0.239217     0.396555     3.483115    14.437699   326.530890
  24 :     0.425021     0.408561     0.538161     2.673140    10.283927    54.878374
  25 :     0.416147     0.400825     0.531884     2.702502    10.416085    55.099404
  26 :     0.425206     0.408711     0.538272     2.672512    10.278910    54.839526
  27 :     0.638703     0.563889     0.637467     2.225612     6.629657   122.285072
  28 :     0.644106     0.567886     0.640444     2.211686     6.544681   120.083324
  29 :     0.644303     0.568040     0.640553     2.211246     6.542184   120.019794
  30 :     0.683085     0.597164     0.659590     2.161524     6.339452   116.298169
  31 :     0.000000     4.831476     1.950873     0.664987     0.790259     2.326896
  32 :     0.000000    49.233133     5.591635     0.251502     0.122369     0.238824
Making the total density                ... o.k.
o.k.
Initializing the integrals              ... done
Making exponents                        ... done
Making rho(0)                           ... done (         0.000250828)
Integral calculation                    ... Two index integrals                     ... done
Solving the equation system             ... done
atomic density will be written to file zfs_atom42.adf

-------
TIMINGS
-------

Total SCF time: 0 days 0 hours 0 min 1 sec 

Total time                  ....       1.087 sec
Sum of individual times     ....       0.218 sec  ( 20.0%)

Fock matrix formation       ....       0.102 sec  (  9.4%)
Diagonalization             ....       0.073 sec  (  6.7%)
Density matrix formation    ....       0.001 sec  (  0.1%)
Population analysis         ....       0.000 sec  (  0.0%)
Initial guess               ....       0.001 sec  (  0.1%)
Orbital Transformation      ....       0.000 sec  (  0.0%)
Orbital Orthonormalization  ....       0.000 sec  (  0.0%)
DIIS solution               ....       0.042 sec  (  3.8%)

Maximum memory used throughout the entire SCF-calculation: 226.2 MB

-------------------------   --------------------
FINAL SINGLE POINT ENERGY       -67.358245622338
-------------------------   --------------------


                            ***************************************
                            *     ORCA property calculations      *
                            ***************************************

                                    ---------------------
                                    Active property flags
                                    ---------------------
   (+) Dipole Moment


------------------------------------------------------------------------------
                       ORCA ELECTRIC PROPERTIES CALCULATION
------------------------------------------------------------------------------

Dipole Moment Calculation                       ... on
Quadrupole Moment Calculation                   ... off
Polarizability Calculation                      ... off
GBWName                                         ... zfs_atom42.gbw
Electron density                                ... zfs_atom42.scfp
The origin for moment calculation is the CENTER OF MASS  = ( 0.000000,  0.000000  0.000000)

-------------
DIPOLE MOMENT
-------------
                                X             Y             Z
Electronic contribution:     -0.00000       0.00000       0.00000
Nuclear contribution   :      0.00000       0.00000       0.00000
                        -----------------------------------------
Total Dipole Moment    :     -0.00000       0.00000       0.00000
                        -----------------------------------------
Magnitude (a.u.)       :      0.00000
Magnitude (Debye)      :      0.00000



--------------------
Rotational spectrum 
--------------------
 
Rotational constants in cm-1:     0.000000     0.000000     0.000000 
Rotational constants in MHz :     0.000000     0.000000     0.000000 

 Dipole components along the rotational axes: 
x,y,z [a.u.] :    -0.000000     0.000000     0.000000 
x,y,z [Debye]:    -0.000000     0.000000     0.000000 

 

Timings for individual modules:

Sum of individual times         ...        2.938 sec (=   0.049 min)
GTO integral calculation        ...        0.964 sec (=   0.016 min)  32.8 %
SCF iterations                  ...        1.974 sec (=   0.033 min)  67.2 %
                             ****ORCA TERMINATED NORMALLY****
TOTAL RUN TIME: 0 days 0 hours 0 minutes 3 seconds 815 msec
