       N       E                     dE             d eps       ncg     rms          rms(c)
DAV:   1     0.303021987872E+05    0.30302E+05   -0.81760E+05  4608   0.268E+03
DAV:   2     0.595282268120E+04   -0.24349E+05   -0.22450E+05  4608   0.737E+02
DAV:   3    -0.122550776268E+04   -0.71783E+04   -0.66020E+04  4752   0.300E+02
DAV:   4    -0.213170560819E+04   -0.90620E+03   -0.88667E+03  5328   0.114E+02
DAV:   5    -0.215705663705E+04   -0.25351E+02   -0.25159E+02  5328   0.200E+01    0.136E+02
DAV:   6    -0.134053429634E+04    0.81652E+03   -0.10463E+03  5904   0.905E+01    0.924E+01
DAV:   7    -0.139947565333E+04   -0.58941E+02   -0.51775E+02  4800   0.333E+01    0.511E+01
DAV:   8    -0.143562997856E+04   -0.36154E+02   -0.23367E+01  5520   0.118E+01    0.318E+01
DAV:   9    -0.155484735866E+04   -0.11922E+03   -0.69346E+01  5040   0.931E+00    0.164E+01
DAV:  10    -0.167909101220E+04   -0.12424E+03   -0.14338E+02  5232   0.117E+01    0.106E+01
DAV:  11    -0.173095923763E+04   -0.51868E+02   -0.80387E+01  4992   0.877E+00    0.696E+00
DAV:  12    -0.174210589199E+04   -0.11147E+02   -0.17684E+01  4848   0.565E+00    0.506E+00
DAV:  13    -0.174347673203E+04   -0.13708E+01   -0.38168E+00  4992   0.346E+00    0.327E+00
DAV:  14    -0.174402874602E+04   -0.55201E+00   -0.12309E+00  5616   0.256E+00    0.176E+00
DAV:  15    -0.174408562108E+04   -0.56875E-01   -0.57559E-01  5088   0.116E+00    0.130E+00
DAV:  16    -0.174410306928E+04   -0.17448E-01   -0.35049E-02  6288   0.737E-01    0.793E-01
DAV:  17    -0.174411301156E+04   -0.99423E-02   -0.21159E-02  6480   0.491E-01    0.308E-01
DAV:  18    -0.174411467397E+04   -0.16624E-02   -0.17093E-02  5088   0.256E-01    0.219E-01
DAV:  19    -0.174411524638E+04   -0.57241E-03   -0.15840E-03  6336   0.153E-01    0.124E-01
DAV:  20    -0.174411578400E+04   -0.53762E-03   -0.83926E-04  6816   0.840E-02    0.747E-02
DAV:  21    -0.174411591864E+04   -0.13465E-03   -0.66219E-04  5376   0.538E-02    0.598E-02
DAV:  22    -0.174411599685E+04   -0.78205E-04   -0.10529E-04  5232   0.408E-02    0.326E-02
DAV:  23    -0.174411605858E+04   -0.61732E-04   -0.78806E-05  5904   0.246E-02    0.171E-02
DAV:  24    -0.174411605417E+04    0.44135E-05   -0.44297E-05  5136   0.129E-02    0.908E-03
DAV:  25    -0.174411605571E+04   -0.15402E-05   -0.56175E-06  5376   0.774E-03    0.470E-03
DAV:  26    -0.174411604995E+04    0.57521E-05   -0.14118E-06  5664   0.317E-03    0.302E-03
DAV:  27    -0.174411604269E+04    0.72638E-05   -0.74963E-07  5328   0.148E-03    0.218E-03
DAV:  28    -0.174411604031E+04    0.23850E-05   -0.88480E-08  5184   0.129E-03    0.186E-03
DAV:  29    -0.174411603849E+04    0.18181E-05   -0.39233E-08  4944   0.778E-04    0.171E-03
DAV:  30    -0.174411603789E+04    0.60143E-06   -0.28505E-08  4704   0.452E-04    0.167E-03
DAV:  31    -0.174411603812E+04   -0.23883E-06   -0.16630E-08  3216   0.239E-04    0.167E-03
DAV:  32    -0.174411603847E+04   -0.34377E-06   -0.31001E-09  2688   0.260E-04    0.166E-03
DAV:  33    -0.174411603866E+04   -0.18746E-06   -0.19772E-09  2640   0.986E-05    0.165E-03
DAV:  34    -0.174411603860E+04    0.58237E-07   -0.92282E-10  2592   0.751E-05    0.165E-03
DAV:  35    -0.174411603858E+04    0.16909E-07   -0.30780E-10  2592   0.490E-05    0.165E-03
DAV:  36    -0.174411603863E+04   -0.45984E-07   -0.20173E-10  2592   0.306E-05    0.165E-03
DAV:  37    -0.174411603864E+04   -0.10012E-07   -0.18678E-10  2592   0.224E-05    0.165E-03
DAV:  38    -0.174411603863E+04    0.54424E-08   -0.10926E-10  2592   0.102E-05
   1 F= -.17441160E+04 E0= -.17441160E+04  d E =-.174412E+04  mag=     2.0000
       N       E                     dE             d eps       ncg     rms          rms(c)
DAV:   1    -0.174355246940E+04    0.56357E+00   -0.26271E+02  4752   0.161E+01    0.382E+00
DAV:   2    -0.174454826200E+04   -0.99579E+00   -0.97353E+00  5328   0.469E+00    0.254E+00
DAV:   3    -0.174461887106E+04   -0.70609E-01   -0.84136E-01  5280   0.132E+00    0.222E+00
DAV:   4    -0.174460850785E+04    0.10363E-01   -0.28740E-02  7584   0.787E-01    0.168E+00
DAV:   5    -0.174459054349E+04    0.17964E-01   -0.34011E-02  8064   0.221E+00    0.391E-01
DAV:   6    -0.174459256604E+04   -0.20225E-02   -0.39398E-02  5664   0.469E-01    0.299E-01
DAV:   7    -0.174459395595E+04   -0.13899E-02   -0.23131E-02  5472   0.432E-01    0.170E-01
DAV:   8    -0.174459399815E+04   -0.42196E-04   -0.22593E-03  5280   0.164E-01    0.107E-01
DAV:   9    -0.174459396335E+04    0.34800E-04   -0.55526E-04  6000   0.682E-02    0.680E-02
DAV:  10    -0.174459398477E+04   -0.21425E-04   -0.24398E-04  7728   0.105E-01    0.340E-02
DAV:  11    -0.174459402940E+04   -0.44629E-04   -0.41430E-04  5472   0.390E-02    0.250E-02
DAV:  12    -0.174459403388E+04   -0.44807E-05   -0.10580E-04  4848   0.165E-02    0.263E-02
DAV:  13    -0.174459403209E+04    0.17880E-05   -0.40222E-06  5664   0.931E-03    0.223E-02
DAV:  14    -0.174459402763E+04    0.44608E-05   -0.18097E-05  6912   0.367E-02    0.140E-02
DAV:  15    -0.174459402707E+04    0.56444E-06   -0.11269E-05  5184   0.652E-03    0.150E-02
DAV:  16    -0.174459402672E+04    0.35134E-06   -0.50048E-06  6384   0.105E-02    0.780E-03
DAV:  17    -0.174459402602E+04    0.69218E-06   -0.21804E-06  6912   0.733E-03    0.395E-03
DAV:  18    -0.174459402514E+04    0.88153E-06   -0.58481E-07  7056   0.560E-03    0.266E-03
DAV:  19    -0.174459402435E+04    0.79148E-06   -0.64468E-07  6720   0.195E-03    0.245E-03
DAV:  20    -0.174459402424E+04    0.11525E-06   -0.32133E-07  5808   0.290E-03    0.173E-03
DAV:  21    -0.174459402438E+04   -0.14226E-06   -0.83483E-08  5040   0.977E-04    0.171E-03
DAV:  22    -0.174459402449E+04   -0.11121E-06   -0.15369E-08  3168   0.723E-04    0.163E-03
DAV:  23    -0.174459402456E+04   -0.68598E-07   -0.46887E-09  2688   0.182E-04    0.163E-03
DAV:  24    -0.174459402464E+04   -0.79162E-07   -0.16575E-09  2640   0.195E-04    0.162E-03
DAV:  25    -0.174459402468E+04   -0.42870E-07   -0.19732E-09  2592   0.872E-05    0.162E-03
DAV:  26    -0.174459402468E+04   -0.27067E-08   -0.49586E-10  2592   0.439E-05
   2 F= -.17445940E+04 E0= -.17445940E+04  d E =-.477986E+00  mag=     2.0000
       N       E                     dE             d eps       ncg     rms          rms(c)
DAV:   1    -0.174458910488E+04    0.49198E-02   -0.25799E+00  4800   0.164E+00    0.368E-01
DAV:   2    -0.174459946188E+04   -0.10357E-01   -0.84839E-02  5664   0.466E-01    0.230E-01
DAV:   3    -0.174460007241E+04   -0.61053E-03   -0.76546E-03  5088   0.123E-01    0.201E-01
DAV:   4    -0.174459995736E+04    0.11505E-03   -0.38341E-04  7920   0.896E-02    0.134E-01
DAV:   5    -0.174459985506E+04    0.10229E-03   -0.27711E-04  8112   0.222E-01    0.362E-02
DAV:   6    -0.174459989034E+04   -0.35274E-04   -0.51842E-04  5184   0.333E-02    0.267E-02
DAV:   7    -0.174459989791E+04   -0.75682E-05   -0.12331E-04  5856   0.449E-02    0.160E-02
DAV:   8    -0.174459989156E+04    0.63470E-05   -0.19537E-05  5616   0.165E-02    0.973E-03
DAV:   9    -0.174459988774E+04    0.38229E-05   -0.43580E-06  8064   0.143E-02    0.479E-03
DAV:  10    -0.174459988666E+04    0.10713E-05   -0.58741E-06  6288   0.734E-03    0.404E-03
DAV:  11    -0.174459988810E+04   -0.14360E-05   -0.63446E-06  5232   0.761E-03    0.396E-03
DAV:  12    -0.174459988793E+04    0.16790E-06   -0.53760E-07  5280   0.174E-03    0.304E-03
DAV:  13    -0.174459988753E+04    0.40498E-06   -0.70920E-08  6000   0.179E-03    0.233E-03
DAV:  14    -0.174459988756E+04   -0.33207E-07   -0.99814E-08  6288   0.167E-03    0.188E-03
DAV:  15    -0.174459988766E+04   -0.10055E-06   -0.81219E-08  4752   0.665E-04    0.181E-03
DAV:  16    -0.174459988771E+04   -0.45693E-07   -0.10612E-08  2976   0.378E-04    0.169E-03
DAV:  17    -0.174459988775E+04   -0.38679E-07   -0.81709E-09  3360   0.368E-04    0.164E-03
DAV:  18    -0.174459988767E+04    0.75146E-07   -0.74171E-09  2688   0.134E-04    0.164E-03
DAV:  19    -0.174459988765E+04    0.19179E-07   -0.94087E-10  2592   0.684E-05    0.163E-03
DAV:  20    -0.174459988760E+04    0.47759E-07   -0.41308E-10  2592   0.685E-05    0.163E-03
DAV:  21    -0.174459988756E+04    0.41822E-07   -0.41111E-10  2592   0.471E-05    0.163E-03
DAV:  22    -0.174459988756E+04   -0.81491E-09   -0.28239E-10  2592   0.288E-05
   3 F= -.17445999E+04 E0= -.17445999E+04  d E =-.483849E+00  mag=     2.0000
       N       E                     dE             d eps       ncg     rms          rms(c)
DAV:   1    -0.174462159367E+04   -0.21706E-01   -0.27382E+01  4800   0.525E+00    0.943E-01
DAV:   2    -0.174467456278E+04   -0.52969E-01   -0.47044E-01  5280   0.105E+00    0.600E-01
DAV:   3    -0.174467525887E+04   -0.69609E-03   -0.26529E-02  5280   0.325E-01    0.454E-01
DAV:   4    -0.174467432078E+04    0.93809E-03   -0.25108E-03  6096   0.366E-01    0.207E-01
DAV:   5    -0.174467416436E+04    0.15642E-03   -0.19309E-03  6480   0.142E-01    0.940E-02
DAV:   6    -0.174467429879E+04   -0.13444E-03   -0.17733E-03  5136   0.914E-02    0.669E-02
DAV:   7    -0.174467432146E+04   -0.22664E-04   -0.14859E-04  6144   0.482E-02    0.424E-02
DAV:   8    -0.174467433643E+04   -0.14969E-04   -0.66133E-05  5712   0.303E-02    0.231E-02
DAV:   9    -0.174467434602E+04   -0.95943E-05   -0.44874E-05  5472   0.184E-02    0.115E-02
DAV:  10    -0.174467434823E+04   -0.22057E-05   -0.40467E-05  5520   0.197E-02    0.101E-02
DAV:  11    -0.174467434788E+04    0.34767E-06   -0.68530E-06  5232   0.591E-03    0.703E-03
DAV:  12    -0.174467434417E+04    0.37075E-05   -0.11371E-06  7584   0.512E-03    0.310E-03
DAV:  13    -0.174467434359E+04    0.57850E-06   -0.13583E-06  5280   0.201E-03    0.246E-03
DAV:  14    -0.174467434426E+04   -0.66470E-06   -0.20795E-07  5232   0.135E-03    0.214E-03
DAV:  15    -0.174467434414E+04    0.11944E-06   -0.45880E-08  5232   0.712E-04    0.182E-03
DAV:  16    -0.174467434401E+04    0.13213E-06   -0.38124E-08  4560   0.453E-04    0.169E-03
DAV:  17    -0.174467434419E+04   -0.18021E-06   -0.94895E-09  3504   0.431E-04    0.166E-03
DAV:  18    -0.174467434416E+04    0.28522E-07   -0.88977E-09  2784   0.157E-04    0.166E-03
DAV:  19    -0.174467434416E+04    0.29104E-10   -0.17407E-09  2592   0.944E-05
   4 F= -.17446743E+04 E0= -.17446743E+04  d E =-.744566E-01  mag=     2.0000
       N       E                     dE             d eps       ncg     rms          rms(c)
DAV:   1    -0.174463579430E+04    0.38550E-01   -0.31911E+01  4704   0.565E+00    0.100E+00
DAV:   2    -0.174469690944E+04   -0.61115E-01   -0.54410E-01  5280   0.114E+00    0.629E-01
DAV:   3    -0.174469784842E+04   -0.93899E-03   -0.32179E-02  5280   0.359E-01    0.482E-01
DAV:   4    -0.174469678129E+04    0.10671E-02   -0.28122E-03  6048   0.371E-01    0.231E-01
DAV:   5    -0.174469653629E+04    0.24500E-03   -0.22766E-03  6672   0.167E-01    0.994E-02
DAV:   6    -0.174469669914E+04   -0.16284E-03   -0.21314E-03  5184   0.932E-02    0.702E-02
DAV:   7    -0.174469672944E+04   -0.30307E-04   -0.18548E-04  5904   0.480E-02    0.446E-02
DAV:   8    -0.174469674499E+04   -0.15549E-04   -0.86350E-05  5664   0.277E-02    0.256E-02
DAV:   9    -0.174469675182E+04   -0.68336E-05   -0.40954E-05  5760   0.225E-02    0.120E-02
DAV:  10    -0.174469675694E+04   -0.51156E-05   -0.47160E-05  5328   0.204E-02    0.105E-02
DAV:  11    -0.174469675667E+04    0.26842E-06   -0.90599E-06  4992   0.631E-03    0.781E-03
DAV:  12    -0.174469675283E+04    0.38409E-05   -0.12769E-06  6720   0.865E-03    0.345E-03
DAV:  13    -0.174469675176E+04    0.10722E-05   -0.16929E-06  5424   0.250E-03    0.296E-03
DAV:  14    -0.174469675249E+04   -0.73347E-06   -0.37490E-07  5328   0.273E-03    0.222E-03
DAV:  15    -0.174469675220E+04    0.29724E-06   -0.66359E-08  5664   0.777E-04    0.193E-03
DAV:  16    -0.174469675193E+04    0.26776E-06   -0.36807E-08  4800   0.664E-04    0.174E-03
DAV:  17    -0.174469675204E+04   -0.10969E-06   -0.15034E-08  3600   0.472E-04    0.170E-03
DAV:  18    -0.174469675201E+04    0.24767E-07   -0.15759E-08  3264   0.189E-04    0.170E-03
DAV:  19    -0.174469675202E+04   -0.46857E-08   -0.14149E-09  2592   0.105E-04
   5 F= -.17446968E+04 E0= -.17446968E+04  d E =-.968645E-01  mag=     2.0000
       N       E                     dE             d eps       ncg     rms          rms(c)
DAV:   1    -0.174467378384E+04    0.22968E-01   -0.21892E+01  4704   0.479E+00    0.855E-01
DAV:   2    -0.174472468516E+04   -0.50901E-01   -0.40302E-01  5136   0.933E-01    0.571E-01
DAV:   3    -0.174472590025E+04   -0.12151E-02   -0.22376E-02  5184   0.272E-01    0.461E-01
DAV:   4    -0.174472538557E+04    0.51468E-03   -0.15811E-03  6960   0.311E-01    0.242E-01
DAV:   5    -0.174472521361E+04    0.17196E-03   -0.10716E-03  7584   0.207E-01    0.510E-02
DAV:   6    -0.174472534779E+04   -0.13418E-03   -0.15708E-03  4944   0.669E-02    0.446E-02
DAV:   7    -0.174472534144E+04    0.63433E-05   -0.71874E-05  5904   0.293E-02    0.308E-02
DAV:   8    -0.174472533213E+04    0.93086E-05   -0.14335E-05  7680   0.207E-02    0.193E-02
DAV:   9    -0.174472532762E+04    0.45176E-05   -0.19797E-05  6768   0.159E-02    0.852E-03
DAV:  10    -0.174472532902E+04   -0.14042E-05   -0.17971E-05  5376   0.133E-02    0.525E-03
DAV:  11    -0.174472532923E+04   -0.20611E-06   -0.59455E-06  4848   0.447E-03    0.488E-03
DAV:  12    -0.174472532935E+04   -0.12392E-06   -0.28784E-07  5616   0.409E-03    0.335E-03
DAV:  13    -0.174472532953E+04   -0.18292E-06   -0.27498E-07  6672   0.341E-03    0.231E-03
DAV:  14    -0.174472532931E+04    0.22328E-06   -0.25474E-07  5760   0.163E-03    0.194E-03
DAV:  15    -0.174472532930E+04    0.90222E-08   -0.56955E-08  4752   0.472E-04
   6 F= -.17447253E+04 E0= -.17447253E+04  d E =-.285773E-01  mag=     2.0000
       N       E                     dE             d eps       ncg     rms          rms(c)
DAV:   1    -0.174471795230E+04    0.73770E-02   -0.40514E+00  4704   0.206E+00    0.366E-01
DAV:   2    -0.174472740897E+04   -0.94567E-02   -0.74155E-02  5136   0.401E-01    0.242E-01
DAV:   3    -0.174472761317E+04   -0.20421E-03   -0.41724E-03  5232   0.117E-01    0.196E-01
DAV:   4    -0.174472751126E+04    0.10191E-03   -0.29354E-04  6864   0.134E-01    0.102E-01
DAV:   5    -0.174472745989E+04    0.51377E-04   -0.19946E-04  7584   0.913E-02    0.214E-02
DAV:   6    -0.174472748563E+04   -0.25748E-04   -0.31568E-04  4992   0.291E-02    0.205E-02
DAV:   7    -0.174472748207E+04    0.35663E-05   -0.13090E-05  5808   0.123E-02    0.147E-02
DAV:   8    -0.174472747910E+04    0.29709E-05   -0.24151E-06  7728   0.947E-03    0.954E-03
DAV:   9    -0.174472747587E+04    0.32227E-05   -0.39672E-06  6960   0.919E-03    0.451E-03
DAV:  10    -0.174472747633E+04   -0.45230E-06   -0.39090E-06  5472   0.584E-03    0.279E-03
DAV:  11    -0.174472747676E+04   -0.43705E-06   -0.11561E-06  4944   0.185E-03    0.257E-03
DAV:  12    -0.174472747697E+04   -0.20998E-06   -0.35128E-08  5376   0.144E-03    0.204E-03
DAV:  13    -0.174472747704E+04   -0.67608E-07   -0.53049E-08  5520   0.108E-03    0.173E-03
DAV:  14    -0.174472747698E+04    0.64727E-07   -0.64140E-08  4272   0.742E-04    0.168E-03
DAV:  15    -0.174472747704E+04   -0.59837E-07   -0.79798E-09  2592   0.317E-04    0.166E-03
DAV:  16    -0.174472747699E+04    0.45140E-07   -0.23309E-09  2592   0.242E-04    0.165E-03
DAV:  17    -0.174472747696E+04    0.31374E-07   -0.15117E-09  2592   0.199E-04    0.164E-03
DAV:  18    -0.174472747695E+04    0.71304E-08   -0.15219E-09  2592   0.104E-04
   7 F= -.17447275E+04 E0= -.17447275E+04  d E =-.307249E-01  mag=     2.0000
       N       E                     dE             d eps       ncg     rms          rms(c)
DAV:   1    -0.174471805954E+04    0.94174E-02   -0.12363E+01  4704   0.356E+00    0.493E-01
DAV:   2    -0.174474387270E+04   -0.25813E-01   -0.16960E-01  5136   0.588E-01    0.359E-01
DAV:   3    -0.174474433242E+04   -0.45972E-03   -0.86282E-03  5280   0.193E-01    0.259E-01
DAV:   4    -0.174474401470E+04    0.31772E-03   -0.81183E-04  6432   0.218E-01    0.144E-01
DAV:   5    -0.174474393056E+04    0.84141E-04   -0.76005E-04  7248   0.121E-01    0.573E-02
DAV:   6    -0.174474396448E+04   -0.33918E-04   -0.62433E-04  5280   0.591E-02    0.306E-02
DAV:   7    -0.174474396409E+04    0.38533E-06   -0.72424E-05  5808   0.149E-02    0.200E-02
DAV:   8    -0.174474396176E+04    0.23290E-05   -0.14526E-05  5232   0.810E-03    0.151E-02
DAV:   9    -0.174474395794E+04    0.38253E-05   -0.95507E-06  6288   0.180E-02    0.787E-03
DAV:  10    -0.174474395739E+04    0.54674E-06   -0.61008E-06  5184   0.488E-03    0.544E-03
DAV:  11    -0.174474395975E+04   -0.23572E-05   -0.21371E-06  7488   0.643E-03    0.349E-03
DAV:  12    -0.174474396021E+04   -0.46194E-06   -0.14277E-06  6192   0.281E-03    0.321E-03
DAV:  13    -0.174474395959E+04    0.61656E-06   -0.52619E-07  5376   0.237E-03    0.227E-03
DAV:  14    -0.174474395956E+04    0.35448E-07   -0.19531E-07  5376   0.125E-03    0.172E-03
DAV:  15    -0.174474395947E+04    0.93307E-07   -0.83828E-08  5376   0.540E-04    0.168E-03
DAV:  16    -0.174474395935E+04    0.11691E-06   -0.94015E-09  2784   0.300E-04    0.166E-03
DAV:  17    -0.174474395922E+04    0.12349E-06   -0.19045E-09  2688   0.251E-04    0.162E-03
DAV:  18    -0.174474395912E+04    0.10361E-06   -0.27355E-09  2592   0.193E-04    0.162E-03
DAV:  19    -0.174474395912E+04   -0.11933E-08   -0.18830E-09  2592   0.744E-05
   8 F= -.17447440E+04 E0= -.17447440E+04  d E =-.164822E-01  mag=     2.0000
       N       E                     dE             d eps       ncg     rms          rms(c)
DAV:   1    -0.174473667118E+04    0.72879E-02   -0.44890E+00  4704   0.214E+00    0.297E-01
DAV:   2    -0.174474603021E+04   -0.93590E-02   -0.61500E-02  5088   0.352E-01    0.216E-01
DAV:   3    -0.174474617390E+04   -0.14369E-03   -0.30665E-03  5328   0.115E-01    0.156E-01
DAV:   4    -0.174474604200E+04    0.13190E-03   -0.29102E-04  6336   0.130E-01    0.863E-02
DAV:   5    -0.174474598828E+04    0.53716E-04   -0.27873E-04  7200   0.720E-02    0.344E-02
DAV:   6    -0.174474599885E+04   -0.10570E-04   -0.22850E-04  5280   0.357E-02    0.186E-02
DAV:   7    -0.174474599684E+04    0.20142E-05   -0.25846E-05  5952   0.935E-03    0.121E-02
DAV:   8    -0.174474599538E+04    0.14580E-05   -0.57163E-06  5280   0.498E-03    0.916E-03
DAV:   9    -0.174474599281E+04    0.25739E-05   -0.35496E-06  6288   0.110E-02    0.495E-03
DAV:  10    -0.174474599218E+04    0.63173E-06   -0.21958E-06  5232   0.301E-03    0.351E-03
DAV:  11    -0.174474599361E+04   -0.14338E-05   -0.80709E-07  7344   0.374E-03    0.247E-03
DAV:  12    -0.174474599395E+04   -0.34311E-06   -0.48255E-07  6240   0.174E-03    0.229E-03
DAV:  13    -0.174474599362E+04    0.33138E-06   -0.20018E-07  5424   0.134E-03    0.186E-03
DAV:  14    -0.174474599357E+04    0.55763E-07   -0.64495E-08  4656   0.734E-04    0.165E-03
DAV:  15    -0.174474599345E+04    0.11420E-06   -0.29949E-08  4464   0.303E-04    0.163E-03
DAV:  16    -0.174474599339E+04    0.63534E-07   -0.28765E-09  2688   0.184E-04    0.162E-03
DAV:  17    -0.174474599331E+04    0.77474E-07   -0.80149E-10  2640   0.119E-04    0.161E-03
DAV:  18    -0.174474599327E+04    0.38563E-07   -0.98512E-10  2592   0.958E-05    0.161E-03
DAV:  19    -0.174474599328E+04   -0.35798E-08   -0.53951E-10  2592   0.441E-05
   9 F= -.17447460E+04 E0= -.17447460E+04  d E =-.185163E-01  mag=     2.0000
       N       E                     dE             d eps       ncg     rms          rms(c)
DAV:   1    -0.174473378577E+04    0.12208E-01   -0.90264E+00  4704   0.320E+00    0.536E-01
DAV:   2    -0.174475567279E+04   -0.21887E-01   -0.19118E-01  5184   0.622E-01    0.305E-01
DAV:   3    -0.174475614081E+04   -0.46802E-03   -0.79296E-03  5184   0.189E-01    0.256E-01
DAV:   4    -0.174475596122E+04    0.17959E-03   -0.57348E-04  6144   0.148E-01    0.143E-01
DAV:   5    -0.174475590340E+04    0.57820E-04   -0.51563E-04  7488   0.125E-01    0.329E-02
DAV:   6    -0.174475596303E+04   -0.59631E-04   -0.65401E-04  4944   0.379E-02    0.279E-02
DAV:   7    -0.174475596132E+04    0.17084E-05   -0.26896E-05  7344   0.198E-02    0.186E-02
DAV:   8    -0.174475595850E+04    0.28136E-05   -0.10890E-05  7008   0.124E-02    0.969E-03
DAV:   9    -0.174475595793E+04    0.57233E-06   -0.80312E-06  5712   0.877E-03    0.375E-03
DAV:  10    -0.174475595912E+04   -0.11836E-05   -0.10975E-05  5520   0.623E-03    0.528E-03
DAV:  11    -0.174475595913E+04   -0.16007E-07   -0.50869E-07  4992   0.149E-03    0.466E-03
DAV:  12    -0.174475595932E+04   -0.19144E-06   -0.42389E-08  5712   0.239E-03    0.408E-03
DAV:  13    -0.174475595959E+04   -0.26551E-06   -0.39611E-07  6480   0.485E-03    0.316E-03
DAV:  14    -0.174475595956E+04    0.30821E-07   -0.17697E-07  6288   0.230E-03    0.251E-03
DAV:  15    -0.174475595952E+04    0.34372E-07   -0.64818E-08  5808   0.963E-04    0.212E-03
DAV:  16    -0.174475595946E+04    0.60914E-07   -0.47921E-08  4656   0.615E-04    0.183E-03
DAV:  17    -0.174475595940E+04    0.65338E-07   -0.21756E-08  3936   0.761E-04    0.162E-03
DAV:  18    -0.174475595938E+04    0.20547E-07   -0.24324E-08  3792   0.219E-04    0.161E-03
DAV:  19    -0.174475595936E+04    0.12660E-07   -0.81906E-10  2592   0.193E-04    0.161E-03
DAV:  20    -0.174475595935E+04    0.17171E-07   -0.64279E-10  2640   0.148E-04    0.161E-03
DAV:  21    -0.174475595934E+04    0.76543E-08   -0.70027E-10  2592   0.945E-05
  10 F= -.17447560E+04 E0= -.17447560E+04  d E =-.996606E-02  mag=     2.0000
       N       E                     dE             d eps       ncg     rms          rms(c)
DAV:   1    -0.174474912727E+04    0.68321E-02   -0.34105E+00  4704   0.196E+00    0.329E-01
DAV:   2    -0.174475739614E+04   -0.82689E-02   -0.72244E-02  5232   0.381E-01    0.187E-01
DAV:   3    -0.174475756733E+04   -0.17118E-03   -0.29813E-03  5232   0.115E-01    0.157E-01
DAV:   4    -0.174475749565E+04    0.71679E-04   -0.21600E-04  6144   0.912E-02    0.882E-02
DAV:   5    -0.174475746671E+04    0.28933E-04   -0.19360E-04  7488   0.770E-02    0.203E-02
DAV:   6    -0.174475748894E+04   -0.22228E-04   -0.24754E-04  4992   0.233E-02    0.172E-02
DAV:   7    -0.174475748760E+04    0.13454E-05   -0.10026E-05  7392   0.124E-02    0.114E-02
DAV:   8    -0.174475748563E+04    0.19628E-05   -0.42905E-06  6960   0.769E-03    0.599E-03
DAV:   9    -0.174475748490E+04    0.73286E-06   -0.34717E-06  5520   0.497E-03    0.265E-03
DAV:  10    -0.174475748560E+04   -0.69558E-06   -0.35648E-06  5520   0.350E-03    0.340E-03
DAV:  11    -0.174475748560E+04   -0.54424E-08   -0.21501E-07  4944   0.104E-03    0.302E-03
DAV:  12    -0.174475748593E+04   -0.32980E-06   -0.12732E-08  3552   0.141E-03    0.270E-03
DAV:  13    -0.174475748644E+04   -0.51211E-06   -0.18528E-07  6528   0.360E-03    0.228E-03
DAV:  14    -0.174475748630E+04    0.14136E-06   -0.76803E-08  5280   0.107E-03    0.206E-03
DAV:  15    -0.174475748611E+04    0.19633E-06   -0.13304E-08  3456   0.108E-03    0.180E-03
DAV:  16    -0.174475748597E+04    0.13394E-06   -0.26954E-08  3696   0.502E-04    0.164E-03
DAV:  17    -0.174475748586E+04    0.11723E-06   -0.70201E-09  2640   0.289E-04    0.161E-03
DAV:  18    -0.174475748576E+04    0.98604E-07   -0.57456E-09  2736   0.258E-04    0.160E-03
DAV:  19    -0.174475748577E+04   -0.14814E-07   -0.56989E-09  2592   0.199E-04    0.160E-03
DAV:  20    -0.174475748576E+04    0.13184E-07   -0.92821E-10  2592   0.188E-04    0.160E-03
DAV:  21    -0.174475748578E+04   -0.17986E-07   -0.58763E-10  2592   0.834E-05    0.159E-03
DAV:  22    -0.174475748578E+04   -0.29104E-08   -0.47935E-10  2592   0.385E-05
  11 F= -.17447575E+04 E0= -.17447575E+04  d E =-.114925E-01  mag=     2.0000
       N       E                     dE             d eps       ncg     rms          rms(c)
DAV:   1    -0.174474325701E+04    0.14229E-01   -0.10451E+01  4704   0.347E+00    0.572E-01
DAV:   2    -0.174476487569E+04   -0.21619E-01   -0.22193E-01  4992   0.669E-01    0.314E-01
DAV:   3    -0.174476525914E+04   -0.38345E-03   -0.97639E-03  5328   0.196E-01    0.263E-01
DAV:   4    -0.174476498384E+04    0.27531E-03   -0.57613E-04  6528   0.170E-01    0.157E-01
DAV:   5    -0.174476483688E+04    0.14695E-03   -0.66120E-04  7728   0.167E-01    0.385E-02
DAV:   6    -0.174476489558E+04   -0.58697E-04   -0.72764E-04  4992   0.428E-02    0.276E-02
DAV:   7    -0.174476488990E+04    0.56762E-05   -0.32266E-05  6768   0.194E-02    0.180E-02
DAV:   8    -0.174476488662E+04    0.32876E-05   -0.10791E-05  6192   0.804E-03    0.103E-02
DAV:   9    -0.174476488461E+04    0.20025E-05   -0.57722E-06  6288   0.690E-03    0.404E-03
DAV:  10    -0.174476488488E+04   -0.26217E-06   -0.31326E-06  5328   0.358E-03    0.323E-03
DAV:  11    -0.174476488490E+04   -0.26077E-07   -0.10607E-06  5136   0.238E-03    0.289E-03
DAV:  12    -0.174476488500E+04   -0.97643E-07   -0.83514E-08  6528   0.172E-03    0.226E-03
DAV:  13    -0.174476488512E+04   -0.12317E-06   -0.83803E-08  6096   0.320E-03    0.165E-03
DAV:  14    -0.174476488491E+04    0.21688E-06   -0.18651E-07  4992   0.770E-04    0.166E-03
DAV:  15    -0.174476488490E+04    0.82946E-08   -0.10768E-08  2976   0.388E-04
  12 F= -.17447649E+04 E0= -.17447649E+04  d E =-.739912E-02  mag=     2.0000
       N       E                     dE             d eps       ncg     rms          rms(c)
DAV:   1    -0.174476328910E+04    0.15958E-02   -0.96202E-01  4704   0.105E+00    0.173E-01
DAV:   2    -0.174476527679E+04   -0.19877E-02   -0.20398E-02  4992   0.203E-01    0.953E-02
DAV:   3    -0.174476531104E+04   -0.34250E-04   -0.89500E-04  5280   0.594E-02    0.798E-02
DAV:   4    -0.174476527998E+04    0.31069E-04   -0.52974E-05  6480   0.518E-02    0.473E-02
DAV:   5    -0.174476526048E+04    0.19495E-04   -0.60919E-05  7728   0.503E-02    0.118E-02
DAV:   6    -0.174476526525E+04   -0.47721E-05   -0.66433E-05  4992   0.130E-02    0.849E-03
DAV:   7    -0.174476526356E+04    0.16891E-05   -0.29552E-06  6720   0.595E-03    0.564E-03
DAV:   8    -0.174476526277E+04    0.79034E-06   -0.10305E-06  5904   0.242E-03    0.347E-03
DAV:   9    -0.174476526215E+04    0.61892E-06   -0.53529E-07  6288   0.206E-03    0.195E-03
DAV:  10    -0.174476526209E+04    0.68103E-07   -0.27896E-07  5328   0.109E-03    0.180E-03
DAV:  11    -0.174476526213E+04   -0.46450E-07   -0.91378E-08  4800   0.719E-04    0.175E-03
DAV:  12    -0.174476526220E+04   -0.65076E-07   -0.38874E-09  2736   0.607E-04    0.165E-03
DAV:  13    -0.174476526227E+04   -0.73836E-07   -0.64471E-09  3888   0.969E-04    0.159E-03
DAV:  14    -0.174476526218E+04    0.89349E-07   -0.24730E-08  3648   0.333E-04    0.160E-03
DAV:  15    -0.174476526216E+04    0.24913E-07   -0.22438E-09  2592   0.122E-04    0.159E-03
DAV:  16    -0.174476526212E+04    0.33615E-07   -0.47171E-10  2592   0.137E-04    0.159E-03
DAV:  17    -0.174476526210E+04    0.23952E-07   -0.44861E-10  2640   0.875E-05    0.159E-03
DAV:  18    -0.174476526211E+04   -0.12398E-07   -0.48873E-10  2592   0.746E-05    0.159E-03
DAV:  19    -0.174476526212E+04   -0.57044E-08   -0.18505E-10  2592   0.216E-05
  13 F= -.17447653E+04 E0= -.17447653E+04  d E =-.777634E-02  mag=     2.0000
       N       E                     dE             d eps       ncg     rms          rms(c)
DAV:   1    -0.174474929271E+04    0.15969E-01   -0.91821E+00  4704   0.324E+00    0.496E-01
DAV:   2    -0.174477043733E+04   -0.21145E-01   -0.18262E-01  4992   0.540E-01    0.293E-01
DAV:   3    -0.174477080087E+04   -0.36354E-03   -0.57987E-03  5232   0.158E-01    0.229E-01
DAV:   4    -0.174477061107E+04    0.18980E-03   -0.56327E-04  6288   0.159E-01    0.120E-01
DAV:   5    -0.174477058697E+04    0.24103E-04   -0.54406E-04  6912   0.825E-02    0.376E-02
DAV:   6    -0.174477062270E+04   -0.35734E-04   -0.42069E-04  5136   0.456E-02    0.266E-02
DAV:   7    -0.174477062746E+04   -0.47587E-05   -0.33776E-05  5808   0.196E-02    0.173E-02
DAV:   8    -0.174477062810E+04   -0.63647E-06   -0.17850E-05  5280   0.861E-03    0.115E-02
DAV:   9    -0.174477063087E+04   -0.27702E-05   -0.54345E-06  6816   0.121E-02    0.533E-03
DAV:  10    -0.174477063080E+04    0.67434E-07   -0.58979E-06  5424   0.551E-03    0.400E-03
DAV:  11    -0.174477063121E+04   -0.40611E-06   -0.14744E-06  5520   0.287E-03    0.322E-03
DAV:  12    -0.174477063103E+04    0.17128E-06   -0.40945E-07  5424   0.184E-03    0.238E-03
DAV:  13    -0.174477063112E+04   -0.81229E-07   -0.33491E-07  5616   0.124E-03    0.177E-03
DAV:  14    -0.174477063108E+04    0.31519E-07   -0.11403E-07  5232   0.997E-04    0.167E-03
DAV:  15    -0.174477063099E+04    0.94326E-07   -0.24977E-08  3888   0.442E-04    0.163E-03
DAV:  16    -0.174477063111E+04   -0.12005E-06   -0.99424E-09  2976   0.285E-04    0.160E-03
DAV:  17    -0.174477063114E+04   -0.28464E-07   -0.46799E-09  2736   0.186E-04    0.160E-03
DAV:  18    -0.174477063110E+04    0.41066E-07   -0.13201E-09  2640   0.110E-04    0.159E-03
DAV:  19    -0.174477063109E+04    0.84110E-08   -0.10317E-09  2592   0.807E-05
  14 F= -.17447706E+04 E0= -.17447706E+04  d E =-.536897E-02  mag=     2.0000
       N       E                     dE             d eps       ncg     rms          rms(c)
DAV:   1    -0.174476891961E+04    0.17115E-02   -0.82962E-01  4704   0.974E-01    0.149E-01
DAV:   2    -0.174477082179E+04   -0.19022E-02   -0.16484E-02  4896   0.162E-01    0.880E-02
DAV:   3    -0.174477084666E+04   -0.24872E-04   -0.52471E-04  5280   0.474E-02    0.691E-02
DAV:   4    -0.174477082244E+04    0.24227E-04   -0.50899E-05  6240   0.481E-02    0.363E-02
DAV:   5    -0.174477081126E+04    0.11181E-04   -0.49381E-05  6960   0.249E-02    0.114E-02
DAV:   6    -0.174477081390E+04   -0.26410E-05   -0.38019E-05  5136   0.137E-02    0.804E-03
DAV:   7    -0.174477081408E+04   -0.18231E-06   -0.30066E-06  5760   0.587E-03    0.539E-03
DAV:   8    -0.174477081371E+04    0.37460E-06   -0.16790E-06  5280   0.256E-03    0.377E-03
DAV:   9    -0.174477081423E+04   -0.52268E-06   -0.47457E-07  6816   0.364E-03    0.220E-03
DAV:  10    -0.174477081399E+04    0.23853E-06   -0.50698E-07  5472   0.163E-03    0.192E-03
DAV:  11    -0.174477081401E+04   -0.20809E-07   -0.12570E-07  5568   0.864E-04    0.179E-03
DAV:  12    -0.174477081398E+04    0.32363E-07   -0.39144E-08  5040   0.555E-04    0.167E-03
DAV:  13    -0.174477081399E+04   -0.12253E-07   -0.30216E-08  4512   0.370E-04    0.160E-03
DAV:  14    -0.174477081393E+04    0.60216E-07   -0.92989E-09  3168   0.298E-04    0.159E-03
DAV:  15    -0.174477081389E+04    0.43598E-07   -0.30372E-09  2688   0.155E-04    0.159E-03
DAV:  16    -0.174477081393E+04   -0.38883E-07   -0.10850E-09  2592   0.935E-05    0.159E-03
DAV:  17    -0.174477081394E+04   -0.11001E-07   -0.58534E-10  2592   0.570E-05    0.159E-03
DAV:  18    -0.174477081393E+04    0.80036E-08   -0.21330E-10  2592   0.355E-05
  15 F= -.17447708E+04 E0= -.17447708E+04  d E =-.555181E-02  mag=     2.0000
       N       E                     dE             d eps       ncg     rms          rms(c)
DAV:   1    -0.174476205188E+04    0.87621E-02   -0.74094E+00  4704   0.288E+00    0.432E-01
DAV:   2    -0.174477480584E+04   -0.12754E-01   -0.13436E-01  5040   0.475E-01    0.247E-01
DAV:   3    -0.174477473051E+04    0.75335E-04   -0.34452E-03  5232   0.122E-01    0.193E-01
DAV:   4    -0.174477450272E+04    0.22779E-03   -0.43771E-04  6288   0.154E-01    0.870E-02
DAV:   5    -0.174477447526E+04    0.27464E-04   -0.49147E-04  6000   0.457E-02    0.344E-02
DAV:   6    -0.174477449588E+04   -0.20622E-04   -0.23465E-04  4944   0.521E-02    0.195E-02
DAV:   7    -0.174477450153E+04   -0.56526E-05   -0.25118E-05  5568   0.101E-02    0.129E-02
DAV:   8    -0.174477450285E+04   -0.13220E-05   -0.58051E-06  5280   0.595E-03    0.791E-03
DAV:   9    -0.174477450541E+04   -0.25573E-05   -0.25950E-06  6240   0.731E-03    0.367E-03
DAV:  10    -0.174477450546E+04   -0.49971E-07   -0.18198E-06  5280   0.306E-03    0.293E-03
DAV:  11    -0.174477450497E+04    0.49017E-06   -0.41318E-07  6720   0.219E-03    0.235E-03
DAV:  12    -0.174477450479E+04    0.18152E-06   -0.85231E-08  5952   0.172E-03    0.180E-03
DAV:  13    -0.174477450490E+04   -0.11647E-06   -0.16390E-07  5472   0.724E-04    0.165E-03
DAV:  14    -0.174477450499E+04   -0.89931E-07   -0.35280E-08  4464   0.629E-04    0.162E-03
DAV:  15    -0.174477450496E+04    0.36089E-07   -0.71992E-09  3312   0.465E-04    0.159E-03
DAV:  16    -0.174477450495E+04    0.13242E-07   -0.41611E-09  2736   0.201E-04    0.158E-03
DAV:  17    -0.174477450494E+04    0.57335E-08   -0.22684E-09  2640   0.179E-04
  16 F= -.17447745E+04 E0= -.17447745E+04  d E =-.369101E-02  mag=     2.0000
       N       E                     dE             d eps       ncg     rms          rms(c)
DAV:   1    -0.174477440513E+04    0.99817E-04   -0.67672E-02  4800   0.276E-01    0.413E-02
DAV:   2    -0.174477451916E+04   -0.11403E-03   -0.12240E-03  5040   0.453E-02    0.236E-02
DAV:   3    -0.174477451703E+04    0.21263E-05   -0.31491E-05  5232   0.116E-02    0.185E-02
DAV:   4    -0.174477451228E+04    0.47530E-05   -0.39868E-06  6288   0.147E-02    0.847E-03
DAV:   5    -0.174477450950E+04    0.27726E-05   -0.44549E-06  6144   0.437E-03    0.364E-03
DAV:   6    -0.174477450985E+04   -0.34270E-06   -0.21372E-06  4944   0.500E-03    0.242E-03
DAV:   7    -0.174477450991E+04   -0.63650E-07   -0.23211E-07  5472   0.942E-04    0.199E-03
DAV:   8    -0.174477451002E+04   -0.11202E-06   -0.56902E-08  5136   0.630E-04    0.174E-03
DAV:   9    -0.174477451015E+04   -0.13073E-06   -0.20600E-08  3792   0.722E-04    0.160E-03
DAV:  10    -0.174477451014E+04    0.16764E-07   -0.19317E-08  3744   0.312E-04    0.159E-03
DAV:  11    -0.174477451011E+04    0.22352E-07   -0.24993E-09  2640   0.197E-04    0.158E-03
DAV:  12    -0.174477451010E+04    0.10885E-07   -0.12791E-09  2640   0.141E-04    0.158E-03
DAV:  13    -0.174477451011E+04   -0.99826E-08   -0.21649E-09  2640   0.847E-05
  17 F= -.17447745E+04 E0= -.17447745E+04  d E =-.369618E-02  mag=     2.0000
       N       E                     dE             d eps       ncg     rms          rms(c)
DAV:   1    -0.174477280633E+04    0.17038E-02   -0.30080E+00  4704   0.182E+00    0.264E-01
DAV:   2    -0.174477720318E+04   -0.43968E-02   -0.47300E-02  5088   0.298E-01    0.162E-01
DAV:   3    -0.174477718068E+04    0.22493E-04   -0.19086E-03  5280   0.887E-02    0.128E-01
DAV:   4    -0.174477708082E+04    0.99864E-04   -0.16327E-04  6048   0.110E-01    0.658E-02
DAV:   5    -0.174477704862E+04    0.32197E-04   -0.17267E-04  7344   0.713E-02    0.218E-02
DAV:   6    -0.174477706501E+04   -0.16382E-04   -0.20638E-04  5040   0.281E-02    0.154E-02
DAV:   7    -0.174477706778E+04   -0.27753E-05   -0.27748E-05  5280   0.907E-03    0.128E-02
DAV:   8    -0.174477706749E+04    0.29363E-06   -0.52968E-06  5088   0.606E-03    0.115E-02
DAV:   9    -0.174477706754E+04   -0.48021E-07   -0.22424E-06  7200   0.130E-02    0.701E-03
DAV:  10    -0.174477706970E+04   -0.21647E-05   -0.26460E-06  6192   0.130E-02    0.679E-03
DAV:  11    -0.174477706982E+04   -0.12113E-06   -0.23612E-06  5808   0.720E-03    0.367E-03
DAV:  12    -0.174477706970E+04    0.11676E-06   -0.52580E-07  6720   0.518E-03    0.198E-03
DAV:  13    -0.174477706960E+04    0.10844E-06   -0.43745E-07  4992   0.132E-03    0.174E-03
DAV:  14    -0.174477706956E+04    0.37136E-07   -0.45114E-08  4128   0.673E-04    0.165E-03
DAV:  15    -0.174477706949E+04    0.64814E-07   -0.21379E-09  2640   0.441E-04    0.159E-03
DAV:  16    -0.174477706947E+04    0.22555E-07   -0.83742E-09  2640   0.212E-04    0.157E-03
DAV:  17    -0.174477706948E+04   -0.12136E-07   -0.38721E-09  2592   0.186E-04    0.157E-03
DAV:  18    -0.174477706948E+04   -0.10186E-08   -0.55801E-10  2592   0.519E-05
  18 F= -.17447771E+04 E0= -.17447771E+04  d E =-.255937E-02  mag=     2.0000
       N       E                     dE             d eps       ncg     rms          rms(c)
DAV:   1    -0.174477681538E+04    0.25410E-03   -0.29006E-01  4800   0.566E-01    0.819E-02
DAV:   2    -0.174477723851E+04   -0.42313E-03   -0.45570E-03  5088   0.923E-02    0.503E-02
DAV:   3    -0.174477723488E+04    0.36342E-05   -0.18379E-04  5232   0.274E-02    0.396E-02
DAV:   4    -0.174477722417E+04    0.10706E-04   -0.15638E-05  5952   0.341E-02    0.205E-02
DAV:   5    -0.174477722014E+04    0.40339E-05   -0.16825E-05  7488   0.222E-02    0.699E-03
DAV:   6    -0.174477722163E+04   -0.14963E-05   -0.19855E-05  5040   0.879E-03    0.501E-03
DAV:   7    -0.174477722205E+04   -0.41508E-06   -0.26964E-06  5280   0.283E-03    0.422E-03
DAV:   8    -0.174477722205E+04    0.40745E-09   -0.53086E-07  5136   0.188E-03    0.387E-03
DAV:   9    -0.174477722215E+04   -0.10515E-06   -0.21334E-07  6960   0.401E-03    0.264E-03
DAV:  10    -0.174477722252E+04   -0.36895E-06   -0.25567E-07  6288   0.407E-03    0.257E-03
DAV:  11    -0.174477722258E+04   -0.52794E-07   -0.22885E-07  5760   0.225E-03    0.186E-03
DAV:  12    -0.174477722261E+04   -0.32334E-07   -0.46848E-08  5232   0.164E-03    0.161E-03
DAV:  13    -0.174477722261E+04    0.29395E-08   -0.46717E-08  4128   0.412E-04
  19 F= -.17447772E+04 E0= -.17447772E+04  d E =-.271249E-02  mag=     2.0000
       N       E                     dE             d eps       ncg     rms          rms(c)
DAV:   1    -0.174477455984E+04    0.26628E-02   -0.28111E+00  4704   0.178E+00    0.279E-01
DAV:   2    -0.174477891174E+04   -0.43519E-02   -0.53133E-02  5088   0.337E-01    0.150E-01
DAV:   3    -0.174477893568E+04   -0.23943E-04   -0.24446E-03  5232   0.922E-02    0.129E-01
DAV:   4    -0.174477887370E+04    0.61987E-04   -0.11243E-04  6192   0.815E-02    0.808E-02
DAV:   5    -0.174477883935E+04    0.34350E-04   -0.15738E-04  7872   0.101E-01    0.177E-02
DAV:   6    -0.174477885730E+04   -0.17950E-04   -0.20680E-04  5088   0.202E-02    0.142E-02
DAV:   7    -0.174477885625E+04    0.10491E-05   -0.12283E-05  6432   0.126E-02    0.928E-03
DAV:   8    -0.174477885624E+04    0.60827E-08   -0.31612E-06  5232   0.350E-03    0.573E-03
DAV:   9    -0.174477885595E+04    0.29316E-06   -0.12388E-06  6912   0.365E-03    0.287E-03
DAV:  10    -0.174477885640E+04   -0.45047E-06   -0.61943E-07  6384   0.244E-03    0.224E-03
DAV:  11    -0.174477885656E+04   -0.15963E-06   -0.44040E-07  5760   0.138E-03    0.189E-03
DAV:  12    -0.174477885652E+04    0.38155E-07   -0.10515E-07  4896   0.675E-04    0.173E-03
DAV:  13    -0.174477885646E+04    0.61817E-07   -0.40692E-09  2688   0.864E-04    0.158E-03
DAV:  14    -0.174477885645E+04    0.64611E-08   -0.23629E-08  4176   0.418E-04
  20 F= -.17447789E+04 E0= -.17447789E+04  d E =-.163385E-02  mag=     2.0000
       N       E                     dE             d eps       ncg     rms          rms(c)
DAV:   1    -0.174477885588E+04    0.58062E-06   -0.69229E-04  4896   0.279E-02    0.468E-03
DAV:   2    -0.174477885726E+04   -0.13789E-05   -0.13066E-05  5088   0.533E-03    0.281E-03
DAV:   3    -0.174477885733E+04   -0.76630E-07   -0.61325E-07  5328   0.145E-03    0.257E-03
DAV:   4    -0.174477885744E+04   -0.11100E-06   -0.23862E-08  4368   0.126E-03    0.202E-03
DAV:   5    -0.174477885767E+04   -0.22262E-06   -0.40103E-08  4704   0.169E-03    0.158E-03
DAV:   6    -0.174477885768E+04   -0.17841E-07   -0.63194E-08  4800   0.364E-04    0.157E-03
DAV:   7    -0.174477885767E+04    0.16240E-07   -0.21027E-09  2592   0.163E-04    0.156E-03
DAV:   8    -0.174477885767E+04    0.17462E-09   -0.15101E-09  2592   0.750E-05
  21 F= -.17447789E+04 E0= -.17447789E+04  d E =-.163506E-02  mag=     2.0000
       N       E                     dE             d eps       ncg     rms          rms(c)
DAV:   1    -0.174477827434E+04    0.58333E-03   -0.84515E-01  4704   0.990E-01    0.153E-01
DAV:   2    -0.174477973694E+04   -0.14626E-02   -0.15163E-02  5184   0.169E-01    0.931E-02
DAV:   3    -0.174477973024E+04    0.67016E-05   -0.54038E-04  5376   0.512E-02    0.725E-02
DAV:   4    -0.174477970282E+04    0.27420E-04   -0.52440E-05  6192   0.607E-02    0.354E-02
DAV:   5    -0.174477969901E+04    0.38090E-05   -0.55203E-05  7584   0.324E-02    0.118E-02
DAV:   6    -0.174477970390E+04   -0.48940E-05   -0.56018E-05  5280   0.160E-02    0.817E-03
DAV:   7    -0.174477970558E+04   -0.16715E-05   -0.84379E-06  4992   0.537E-03    0.663E-03
DAV:   8    -0.174477970514E+04    0.43635E-06   -0.14006E-06  5424   0.334E-03    0.568E-03
DAV:   9    -0.174477970558E+04   -0.44040E-06   -0.71098E-07  7392   0.845E-03    0.337E-03
DAV:  10    -0.174477970613E+04   -0.54849E-06   -0.56309E-07  6720   0.433E-03    0.316E-03
DAV:  11    -0.174477970639E+04   -0.26127E-06   -0.59139E-07  5904   0.403E-03    0.184E-03
DAV:  12    -0.174477970637E+04    0.15949E-07   -0.14831E-07  6480   0.102E-03    0.170E-03
DAV:  13    -0.174477970613E+04    0.23976E-06   -0.53065E-08  4128   0.880E-04    0.160E-03
DAV:  14    -0.174477970610E+04    0.38650E-07   -0.67839E-09  2736   0.515E-04    0.157E-03
DAV:  15    -0.174477970611E+04   -0.11001E-07   -0.10191E-08  2688   0.163E-04    0.157E-03
DAV:  16    -0.174477970610E+04    0.79162E-08   -0.24038E-09  2592   0.106E-04
  22 F= -.17447797E+04 E0= -.17447797E+04  d E =-.848431E-03  mag=     2.0000
       N       E                     dE             d eps       ncg     rms          rms(c)
DAV:   1    -0.174477967520E+04    0.30906E-04   -0.35542E-02  4800   0.203E-01    0.314E-02
DAV:   2    -0.174477973736E+04   -0.62160E-04   -0.63725E-04  5184   0.346E-02    0.192E-02
DAV:   3    -0.174477973690E+04    0.46418E-06   -0.22824E-05  5376   0.105E-02    0.150E-02
DAV:   4    -0.174477973601E+04    0.88866E-06   -0.21991E-06  6192   0.125E-02    0.744E-03
DAV:   5    -0.174477973625E+04   -0.23679E-06   -0.23199E-06  7632   0.668E-03    0.287E-03
DAV:   6    -0.174477973651E+04   -0.26551E-06   -0.23443E-06  5280   0.328E-03    0.226E-03
DAV:   7    -0.174477973674E+04   -0.22483E-06   -0.35499E-07  4992   0.109E-03    0.204E-03
DAV:   8    -0.174477973667E+04    0.68248E-07   -0.58048E-08  4224   0.683E-04    0.192E-03
DAV:   9    -0.174477973676E+04   -0.89203E-07   -0.16470E-08  4080   0.172E-03    0.168E-03
DAV:  10    -0.174477973684E+04   -0.83557E-07   -0.39033E-08  4512   0.104E-03    0.169E-03
DAV:  11    -0.174477973689E+04   -0.54453E-07   -0.34866E-08  3648   0.106E-03    0.158E-03
DAV:  12    -0.174477973689E+04    0.63737E-08   -0.98678E-09  2688   0.155E-04
  23 F= -.17447797E+04 E0= -.17447797E+04  d E =-.879220E-03  mag=     2.0000
       N       E                     dE             d eps       ncg     rms          rms(c)
DAV:   1    -0.174477942364E+04    0.31325E-03   -0.34694E-01  4704   0.634E-01    0.114E-01
DAV:   2    -0.174478002618E+04   -0.60254E-03   -0.75765E-03  5184   0.139E-01    0.619E-02
DAV:   3    -0.174478003777E+04   -0.11594E-04   -0.42857E-04  5280   0.376E-02    0.566E-02
DAV:   4    -0.174478002987E+04    0.78986E-05   -0.18597E-05  6960   0.307E-02    0.366E-02
DAV:   5    -0.174478002742E+04    0.24585E-05   -0.21877E-05  7728   0.412E-02    0.634E-03
DAV:   6    -0.174478003066E+04   -0.32462E-05   -0.31423E-05  4896   0.757E-03    0.544E-03
DAV:   7    -0.174478003132E+04   -0.65341E-06   -0.25936E-06  6480   0.551E-03    0.372E-03
DAV:   8    -0.174478003176E+04   -0.44654E-06   -0.43461E-07  5952   0.162E-03    0.253E-03
DAV:   9    -0.174478003206E+04   -0.29680E-06   -0.17643E-07  6864   0.231E-03    0.176E-03
DAV:  10    -0.174478003227E+04   -0.21493E-06   -0.18310E-07  5280   0.101E-03    0.169E-03
DAV:  11    -0.174478003220E+04    0.72323E-07   -0.11027E-07  4800   0.608E-04    0.171E-03
DAV:  12    -0.174478003220E+04    0.40745E-09   -0.65320E-09  2592   0.148E-04
  24 F= -.17447800E+04 E0= -.17447800E+04  d E =-.295313E-03  mag=     2.0000
       N       E                     dE             d eps       ncg     rms          rms(c)
DAV:   1    -0.174478003053E+04    0.16743E-05   -0.11187E-04  4896   0.114E-02    0.254E-03
DAV:   2    -0.174478003081E+04   -0.28810E-06   -0.23769E-06  5280   0.286E-03    0.196E-03
DAV:   3    -0.174478003086E+04   -0.49360E-07   -0.18666E-07  5376   0.768E-04    0.191E-03
DAV:   4    -0.174478003090E+04   -0.36496E-07   -0.50151E-09  2640   0.474E-04    0.175E-03
DAV:   5    -0.174478003097E+04   -0.66822E-07   -0.10143E-08  3888   0.896E-04    0.158E-03
DAV:   6    -0.174478003099E+04   -0.20722E-07   -0.20962E-08  3120   0.220E-04    0.158E-03
DAV:   7    -0.174478003100E+04   -0.13417E-07   -0.21876E-09  2592   0.913E-05    0.157E-03
DAV:   8    -0.174478003103E+04   -0.25524E-07   -0.47904E-10  2592   0.874E-05    0.157E-03
DAV:   9    -0.174478003105E+04   -0.18772E-07   -0.26520E-10  2592   0.945E-05    0.157E-03
DAV:  10    -0.174478003106E+04   -0.11874E-07   -0.30162E-10  2592   0.383E-05    0.157E-03
DAV:  11    -0.174478003106E+04   -0.11350E-08   -0.20183E-10  2592   0.222E-05
  25 F= -.17447800E+04 E0= -.17447800E+04  d E =-.294171E-03  mag=     2.0000
       N       E                     dE             d eps       ncg     rms          rms(c)
DAV:   1    -0.174477992118E+04    0.10988E-03   -0.12152E-01  4704   0.372E-01    0.512E-02
DAV:   2    -0.174478012452E+04   -0.20335E-03   -0.16640E-03  4944   0.607E-02    0.352E-02
DAV:   3    -0.174478012900E+04   -0.44751E-05   -0.10032E-04  5424   0.181E-02    0.269E-02
DAV:   4    -0.174478012496E+04    0.40364E-05   -0.60943E-06  6288   0.256E-02    0.149E-02
DAV:   5    -0.174478012522E+04   -0.26039E-06   -0.60511E-06  8064   0.232E-02    0.520E-03
DAV:   6    -0.174478012630E+04   -0.10747E-05   -0.10605E-05  5184   0.539E-03    0.404E-03
DAV:   7    -0.174478012619E+04    0.10541E-06   -0.71320E-07  6912   0.229E-03    0.316E-03
DAV:   8    -0.174478012608E+04    0.11403E-06   -0.29102E-07  6624   0.130E-03    0.253E-03
DAV:   9    -0.174478012618E+04   -0.10309E-06   -0.10553E-07  6576   0.292E-03    0.180E-03
DAV:  10    -0.174478012599E+04    0.18498E-06   -0.80126E-08  6384   0.131E-03    0.178E-03
DAV:  11    -0.174478012596E+04    0.36031E-07   -0.86404E-08  5040   0.968E-04    0.163E-03
DAV:  12    -0.174478012593E+04    0.31869E-07   -0.22428E-08  2832   0.268E-04    0.160E-03
DAV:  13    -0.174478012593E+04   -0.68103E-08   -0.39876E-09  2592   0.182E-04
  26 F= -.17447801E+04 E0= -.17447801E+04  d E =-.948746E-04  mag=     2.0000
       N       E                     dE             d eps       ncg     rms          rms(c)
DAV:   1    -0.174478012573E+04    0.19913E-06   -0.26153E-04  4896   0.172E-02    0.282E-03
DAV:   2    -0.174478012626E+04   -0.52984E-06   -0.35647E-06  4944   0.273E-03    0.228E-03
DAV:   3    -0.174478012630E+04   -0.41386E-07   -0.20561E-07  5424   0.783E-04    0.202E-03
DAV:   4    -0.174478012628E+04    0.15629E-07   -0.10191E-08  3792   0.123E-03    0.172E-03
DAV:   5    -0.174478012636E+04   -0.79919E-07   -0.15064E-08  4176   0.116E-03    0.160E-03
DAV:   6    -0.174478012639E+04   -0.27358E-07   -0.30754E-08  3744   0.342E-04    0.159E-03
DAV:   7    -0.174478012639E+04    0.28231E-08   -0.22375E-09  2592   0.121E-04
  27 F= -.17447801E+04 E0= -.17447801E+04  d E =-.953287E-04  mag=     2.0000
       N       E                     dE             d eps       ncg     rms          rms(c)
DAV:   1    -0.174478008049E+04    0.45900E-04   -0.57177E-02  4704   0.257E-01    0.409E-02
DAV:   2    -0.174478017515E+04   -0.94662E-04   -0.10679E-03  5040   0.485E-02    0.235E-02
DAV:   3    -0.174478017707E+04   -0.19201E-05   -0.51311E-05  5376   0.131E-02    0.198E-02
DAV:   4    -0.174478017649E+04    0.57911E-06   -0.26188E-06  6432   0.141E-02    0.116E-02
DAV:   5    -0.174478017750E+04   -0.10079E-05   -0.33375E-06  7920   0.146E-02    0.318E-03
DAV:   6    -0.174478017799E+04   -0.48950E-06   -0.48743E-06  4896   0.343E-03    0.265E-03
DAV:   7    -0.174478017792E+04    0.74360E-07   -0.20282E-07  6480   0.150E-03    0.223E-03
DAV:   8    -0.174478017790E+04    0.15367E-07   -0.88847E-08  5808   0.820E-04    0.184E-03
DAV:   9    -0.174478017787E+04    0.32363E-07   -0.26706E-08  4608   0.804E-04    0.164E-03
DAV:  10    -0.174478017793E+04   -0.59488E-07   -0.35940E-08  4752   0.492E-04    0.161E-03
DAV:  11    -0.174478017794E+04   -0.14901E-07   -0.18405E-08  2976   0.326E-04    0.160E-03
DAV:  12    -0.174478017794E+04    0.13097E-08   -0.70554E-09  2592   0.140E-04
  28 F= -.17447802E+04 E0= -.17447802E+04  d E =-.515546E-04  mag=     2.0000
       N       E                     dE             d eps       ncg     rms          rms(c)
DAV:   1    -0.174478017794E+04   -0.11350E-08   -0.10584E-04  4896   0.111E-02    0.233E-03
DAV:   2    -0.174478017832E+04   -0.37931E-06   -0.19636E-06  5088   0.200E-03    0.189E-03
DAV:   3    -0.174478017839E+04   -0.70548E-07   -0.94368E-08  5280   0.521E-04    0.180E-03
DAV:   4    -0.174478017844E+04   -0.41298E-07   -0.32966E-09  2592   0.638E-04    0.166E-03
DAV:   5    -0.174478017851E+04   -0.75845E-07   -0.65176E-09  3456   0.743E-04    0.159E-03
DAV:   6    -0.174478017852E+04   -0.38126E-08   -0.14514E-08  2784   0.232E-04
  29 F= -.17447802E+04 E0= -.17447802E+04  d E =-.521279E-04  mag=     2.0000
       N       E                     dE             d eps       ncg     rms          rms(c)
DAV:   1    -0.174478016753E+04    0.10984E-04   -0.15791E-02  4704   0.135E-01    0.212E-02
DAV:   2    -0.174478019335E+04   -0.25825E-04   -0.30369E-04  5088   0.238E-02    0.122E-02
DAV:   3    -0.174478019236E+04    0.98869E-06   -0.12098E-05  5328   0.686E-03    0.970E-03
DAV:   4    -0.174478019147E+04    0.89340E-06   -0.91713E-07  6384   0.800E-03    0.542E-03
DAV:   5    -0.174478019039E+04    0.10819E-05   -0.96412E-07  7104   0.567E-03    0.231E-03
DAV:   6    -0.174478019057E+04   -0.17774E-06   -0.10956E-06  4992   0.198E-03    0.196E-03
DAV:   7    -0.174478019079E+04   -0.22334E-06   -0.62192E-08  5904   0.717E-04    0.178E-03
DAV:   8    -0.174478019087E+04   -0.79512E-07   -0.36268E-08  3936   0.365E-04    0.168E-03
DAV:   9    -0.174478019106E+04   -0.19377E-06   -0.83760E-09  2976   0.588E-04    0.161E-03
DAV:  10    -0.174478019113E+04   -0.64407E-07   -0.92030E-09  2832   0.285E-04    0.159E-03
DAV:  11    -0.174478019113E+04   -0.69558E-08   -0.50512E-09  2592   0.286E-04
  30 F= -.17447802E+04 E0= -.17447802E+04  d E =-.126191E-04  mag=     2.0000
       N       E                     dE             d eps       ncg     rms          rms(c)
DAV:   1    -0.174478019654E+04   -0.54158E-05   -0.10532E-03  4704   0.348E-02    0.563E-03
DAV:   2    -0.174478019808E+04   -0.15397E-05   -0.20211E-05  5088   0.609E-03    0.351E-03
DAV:   3    -0.174478019782E+04    0.25929E-06   -0.79997E-07  5328   0.172E-03    0.295E-03
DAV:   4    -0.174478019769E+04    0.13423E-06   -0.59204E-08  6000   0.209E-03    0.208E-03
DAV:   5    -0.174478019744E+04    0.24945E-06   -0.56009E-08  5088   0.152E-03    0.164E-03
DAV:   6    -0.174478019746E+04   -0.24389E-07   -0.87906E-08  4896   0.619E-04    0.161E-03
DAV:   7    -0.174478019752E+04   -0.51368E-07   -0.49200E-09  2592   0.172E-04    0.160E-03
DAV:   8    -0.174478019754E+04   -0.27037E-07   -0.35031E-09  2592   0.110E-04    0.159E-03
DAV:   9    -0.174478019757E+04   -0.29366E-07   -0.64827E-10  2592   0.172E-04    0.158E-03
DAV:  10    -0.174478019761E+04   -0.40076E-07   -0.67560E-10  2592   0.130E-04    0.158E-03
DAV:  11    -0.174478019762E+04   -0.27067E-08   -0.87528E-10  2592   0.107E-04
  31 F= -.17447802E+04 E0= -.17447802E+04  d E =-.190996E-04  mag=     2.0000
       N       E                     dE             d eps       ncg     rms          rms(c)
DAV:   1    -0.174478018641E+04    0.11200E-04   -0.10754E-02  4608   0.111E-01    0.185E-02
DAV:   2    -0.174478020527E+04   -0.18856E-04   -0.22139E-04  5088   0.214E-02    0.102E-02
DAV:   3    -0.174478020598E+04   -0.71552E-06   -0.10304E-05  5472   0.573E-03    0.871E-03
DAV:   4    -0.174478020621E+04   -0.22814E-06   -0.50558E-07  6768   0.593E-03    0.528E-03
DAV:   5    -0.174478020700E+04   -0.79279E-06   -0.58470E-07  7296   0.643E-03    0.195E-03
DAV:   6    -0.174478020698E+04    0.21158E-07   -0.98221E-07  4896   0.142E-03    0.189E-03
DAV:   7    -0.174478020681E+04    0.16953E-06   -0.39156E-08  5280   0.789E-04    0.174E-03
DAV:   8    -0.174478020671E+04    0.99535E-07   -0.10318E-08  2832   0.444E-04    0.165E-03
DAV:   9    -0.174478020661E+04    0.99477E-07   -0.11681E-08  3120   0.302E-04    0.159E-03
DAV:  10    -0.174478020662E+04   -0.34051E-08   -0.10308E-08  2592   0.196E-04
  32 F= -.17447802E+04 E0= -.17447802E+04  d E =-.900292E-05  mag=     2.0000
       N       E                     dE             d eps       ncg     rms          rms(c)
DAV:   1    -0.174478020662E+04   -0.89931E-08   -0.48008E-06  4800   0.234E-03    0.164E-03
DAV:   2    -0.174478020661E+04    0.12922E-07   -0.10177E-07  5040   0.435E-04    0.159E-03
DAV:   3    -0.174478020660E+04    0.10332E-07   -0.31787E-09  2592   0.125E-04    0.159E-03
DAV:   4    -0.174478020658E+04    0.18394E-07   -0.54238E-10  2592   0.158E-04    0.158E-03
DAV:   5    -0.174478020657E+04    0.11321E-07   -0.49251E-10  2592   0.724E-05    0.158E-03
DAV:   6    -0.174478020657E+04    0.34051E-08   -0.71078E-10  2592   0.526E-05
  33 F= -.17447802E+04 E0= -.17447802E+04  d E =-.895213E-05  mag=     2.0000
       N       E                     dE             d eps       ncg     rms          rms(c)
DAV:   1    -0.174478020229E+04    0.42805E-05   -0.32859E-03  4704   0.617E-02    0.103E-02
DAV:   2    -0.174478020786E+04   -0.55737E-05   -0.67399E-05  5040   0.124E-02    0.596E-03
DAV:   3    -0.174478020770E+04    0.16476E-06   -0.39417E-06  5328   0.368E-03    0.505E-03
DAV:   4    -0.174478020727E+04    0.42454E-06   -0.17602E-07  6096   0.338E-03    0.338E-03
DAV:   5    -0.174478020663E+04    0.64360E-06   -0.16339E-07  5664   0.413E-03    0.173E-03
DAV:   6    -0.174478020668E+04   -0.45751E-07   -0.31392E-07  5040   0.735E-04    0.169E-03
DAV:   7    -0.174478020676E+04   -0.84430E-07   -0.19419E-08  3264   0.574E-04    0.162E-03
DAV:   8    -0.174478020679E+04   -0.31403E-07   -0.82525E-09  2640   0.237E-04    0.159E-03
DAV:   9    -0.174478020681E+04   -0.20256E-07   -0.48192E-09  2592   0.147E-04    0.158E-03
DAV:  10    -0.174478020682E+04   -0.62864E-08   -0.12045E-09  2592   0.152E-04
  34 F= -.17447802E+04 E0= -.17447802E+04  d E =-.251777E-06  mag=     2.0000
