
     Program PWSCF v.7.1 starts on 27Jan2025 at 14:11:14 

     This program is part of the open-source Quantum ESPRESSO suite
     for quantum simulation of materials; please cite
         "P. Giannozzi et al., J. Phys.:Condens. Matter 21 395502 (2009);
         "P. Giannozzi et al., J. Phys.:Condens. Matter 29 465901 (2017);
         "P. Giannozzi et al., J. Chem. Phys. 152 154105 (2020);
          URL http://www.quantum-espresso.org", 
     in publications or presentations arising from this work. More details at
     http://www.quantum-espresso.org/quote

     Parallel version (MPI), running on   256 processors

     MPI processes distributed on     8 nodes
     184657 MiB available memory on the printing compute node when the environment starts
 
     Reading input from scf.in
Warning: card &CELL ignored
Warning: card / ignored

     Current dimensions of program PWSCF are:
     Max number of different atomic species (ntypx) = 10
     Max number of k-points (npk) =  40000
     Max angular momentum in pseudopotentials (lmaxx) =  4

     IMPORTANT: XC functional enforced from input :
     Exchange-correlation= PBE0
                           (   6   4   8   4   0   0   0)
     EXX-fraction              =        0.25
     Any further DFT definition will be discarded
     Please, verify this is what you really want


     gamma-point specific algorithms are used
 
     K-points division:     npool     =       2
     band groups division:  nbgrp     =       4
     R & G space division:  proc/nbgrp/npool/nimage =      32
     Subspace diagonalization in iterative solution of the eigenvalue problem:
     a serial algorithm will be used

     EXX: q-point mesh:     1    1    1
     EXX: grid of k+q points same as grid of k-points
 
     Parallelization info
     --------------------
     sticks:   dense  smooth     PW     G-vecs:    dense   smooth      PW
     Min         414     414    102                46530    46530    5806
     Max         416     416    106                46540    46540    5824
     Sum       13273   13273   3319              1489031  1489031  186077
 
     Using Slab Decomposition
 


     bravais-lattice index     =            0
     lattice parameter (alat)  =      24.5558  a.u.
     unit-cell volume          =   15406.2245 (a.u.)^3
     number of atoms/cell      =          191
     number of atomic types    =            4
     number of electrons       =      2482.00
     number of Kohn-Sham states=         1260
     kinetic-energy cutoff     =      80.0000  Ry
     charge density cutoff     =     320.0000  Ry
     cutoff for Fock operator  =     160.0000  Ry
     scf convergence threshold =      1.0E-09
     mixing beta               =       0.5000
     number of iterations used =            8  plain     mixing
     Exchange-correlation= PBE0
                           (   6   4   8   4   0   0   0)
     EXX-fraction              =        0.25

     celldm(1)=  24.555771  celldm(2)=   0.000000  celldm(3)=   0.000000
     celldm(4)=   0.000000  celldm(5)=   0.000000  celldm(6)=   0.000000

     crystal axes: (cart. coord. in units of alat)
               a(1) = (   1.000000   0.000000   0.000000 )  
               a(2) = (  -0.500000   0.866025   0.000000 )  
               a(3) = (   0.000000   0.000000   1.201448 )  

     reciprocal axes: (cart. coord. in units 2 pi/alat)
               b(1) = (  1.000000  0.577350  0.000000 )  
               b(2) = (  0.000000  1.154701  0.000000 )  
               b(3) = (  0.000000  0.000000  0.832329 )  


     PseudoPot. # 1 for Zn read from file:
     ~/Pseudopotential/pseudo-ONCV-proj/Zn_ONCV_PBE-1.0.upf
     MD5 check sum: Not computed, couldn't open file
     Pseudo is Norm-conserving, Zval = 20.0
     Generated using ONCVPSP code by D. R. Hamann
     Using radial grid of 1326 points,  6 beta functions with: 
                l(1) =   0
                l(2) =   0
                l(3) =   1
                l(4) =   1
                l(5) =   2
                l(6) =   2

     PseudoPot. # 2 for Zn read from file:
     ~/Pseudopotential/pseudo-ONCV-proj/Zn_ONCV_PBE-1.0.upf
     MD5 check sum: Not computed, couldn't open file
     Pseudo is Norm-conserving, Zval = 20.0
     Generated using ONCVPSP code by D. R. Hamann
     Using radial grid of 1326 points,  6 beta functions with: 
                l(1) =   0
                l(2) =   0
                l(3) =   1
                l(4) =   1
                l(5) =   2
                l(6) =   2

     PseudoPot. # 3 for O  read from file:
     ~/Pseudopotential/pseudo-ONCV-proj/O_ONCV_PBE-1.0.upf
     MD5 check sum: Not computed, couldn't open file
     Pseudo is Norm-conserving, Zval =  6.0
     Generated using ONCVPSP code by D. R. Hamann
     Using radial grid of  936 points,  4 beta functions with: 
                l(1) =   0
                l(2) =   0
                l(3) =   1
                l(4) =   1

     PseudoPot. # 4 for V  read from file:
     ~/Pseudopotential/pseudo-ONCV-proj/V_ONCV_PBE-1.0.upf
     MD5 check sum: Not computed, couldn't open file
     Pseudo is Norm-conserving, Zval = 13.0
     Generated using ONCVPSP code by D. R. Hamann
     Using radial grid of 1536 points,  6 beta functions with: 
                l(1) =   0
                l(2) =   0
                l(3) =   1
                l(4) =   1
                l(5) =   2
                l(6) =   2

     atomic species   valence    mass     pseudopotential
        Zn1           20.00    65.39000     Zn( 1.00)
        Zn            20.00    65.39000     Zn( 1.00)
        O              6.00    15.99940     O ( 1.00)
        V             13.00    50.94150     V ( 1.00)

     Starting magnetic structure 
     atomic species   magnetization
        Zn1          0.500
        Zn           0.000
        O            0.000
        V            1.000

     No symmetry found


                                    s                        frac. trans.

      isym =  1     identity                                     

 cryst.   s( 1) = (     1          0          0      )
                  (     0          1          0      )
                  (     0          0          1      )

 cart.    s( 1) = (  1.0000000 -0.0000000  0.0000000 )
                  (  0.0000000  1.0000000  0.0000000 )
                  (  0.0000000  0.0000000  1.0000000 )


   Cartesian axes

     site n.     atom                  positions (alat units)
         1           Zn  tau(   1) = (   0.1249598   0.0721920   0.1997491  )
         2           Zn  tau(   2) = (   0.1251072   0.0721069   0.6010524  )
         3           Zn  tau(   3) = (   0.1250220   0.0721561   1.0012843  )
         4           Zn  tau(   4) = (  -0.0001729   0.2885682   0.1999057  )
         5           Zn  tau(   5) = (  -0.0003507   0.2884672   0.6008527  )
         6           Zn  tau(   6) = (  -0.0000192   0.2886545   1.0015519  )
         7           Zn  tau(   7) = (  -0.1250000   0.5051233   0.1997484  )
         8           Zn  tau(   8) = (  -0.1249961   0.5053053   0.6010590  )
         9           Zn  tau(   9) = (  -0.1250010   0.5052046   1.0012925  )
        10           Zn  tau(  10) = (  -0.2499629   0.7217054   0.1997172  )
        11           Zn  tau(  11) = (  -0.2495779   0.7219327   0.6011344  )
        12           Zn  tau(  12) = (  -0.2499827   0.7217011   1.0014838  )
        13           Zn  tau(  13) = (   0.3750033   0.0721278   0.1997172  )
        14           Zn  tau(  14) = (   0.3749990   0.0716808   0.6011344  )
        15           Zn  tau(  15) = (   0.3749971   0.0721472   1.0014838  )
        16           Zn  tau(  16) = (   0.2495190   0.2883045   0.2000878  )
        17           Zn  tau(  17) = (   0.2475081   0.2867699   0.6026895  )
        18           Zn  tau(  18) = (   0.2507995   0.2892075   1.0007446  )
        19           Zn  tau(  19) = (   0.1244275   0.5049532   0.2000820  )
        20           Zn  tau(  20) = (   0.1220156   0.5039866   0.6026879  )
        21           Zn  tau(  21) = (   0.1258314   0.5056217   1.0007725  )
        22           Zn  tau(  22) = (  -0.0000450   0.7217138   0.1997144  )
        23           Zn  tau(  23) = (  -0.0004786   0.7219641   0.6011415  )
        24           Zn  tau(  24) = (  -0.0000515   0.7217175   1.0014996  )
        25           Zn  tau(  25) = (   0.6250503   0.0721978   0.1997484  )
        26           Zn  tau(  26) = (   0.6248947   0.0721035   0.6010590  )
        27           Zn  tau(  27) = (   0.6249795   0.0721581   1.0012925  )
        28           Zn  tau(  28) = (   0.5004931   0.2883000   0.2000812  )
        29           Zn  tau(  29) = (   0.5025970   0.2867130   0.6027003  )
        30           Zn  tau(  30) = (   0.4992335   0.2891858   1.0007678  )
        31           Zn  tau(  31) = (   0.3749990   0.5051821   0.2007026  )
        32           Zn  tau(  32) = (   0.3749843   0.5051905   1.0032425  )
        33           Zn  tau(  33) = (   0.2499114   0.7222977   0.2000820  )
        34           Zn  tau(  34) = (   0.2495426   0.7248698   0.6026879  )
        35           Zn  tau(  35) = (   0.2500345   0.7207476   1.0007725  )
        36           Zn  tau(  36) = (   0.8750061   0.0723719   0.1999057  )
        37           Zn  tau(  37) = (   0.8750047   0.0725765   0.6008527  )
        38           Zn  tau(  38) = (   0.8750083   0.0721958   1.0015519  )
        39           Zn  tau(  39) = (   0.7501905   0.2885651   0.1999056  )
        40           Zn  tau(  40) = (   0.7503777   0.2884571   0.6008518  )
        41           Zn  tau(  41) = (   0.7500567   0.2886424   1.0015718  )
        42           Zn  tau(  42) = (   0.6255714   0.5049420   0.2000812  )
        43           Zn  tau(  43) = (   0.6279978   0.5039134   0.6027003  )
        44           Zn  tau(  44) = (   0.6241745   0.5055899   1.0007678  )
        45           Zn  tau(  45) = (   0.5000805   0.7222897   0.2000878  )
        46           Zn  tau(  46) = (   0.5004040   0.7247984   0.6026895  )
        47           Zn  tau(  47) = (   0.4999388   0.7207292   1.0007446  )
        48           Zn  tau(  48) = (   0.0000153   0.1443287   0.0000590  )
        49           Zn  tau(  49) = (  -0.0000348   0.1443577   0.4001999  )
        50           Zn  tau(  50) = (   0.0001146   0.1442714   0.8013188  )
        51           Zn  tau(  51) = (  -0.1249917   0.3608563   0.0000686  )
        52           Zn  tau(  52) = (  -0.1249957   0.3608089   0.4001961  )
        53           Zn  tau(  53) = (  -0.1249788   0.3610031   0.8013357  )
        54           Zn  tau(  54) = (  -0.2500693   0.5772852   1.2011955  )
        55           Zn  tau(  55) = (  -0.2492986   0.5776540   0.3999219  )
        56           Zn  tau(  56) = (  -0.2511295   0.5774087   0.8016786  )
        57           Zn  tau(  57) = (  -0.3750888   0.7938202   1.2011845  )
        58           Zn  tau(  58) = (  -0.3743860   0.7943202   0.3999299  )
        59           Zn  tau(  59) = (  -0.3755720   0.7928251   0.8016557  )
        60           Zn  tau(  60) = (   0.2499871   0.1444327   1.2011845  )
        61           Zn  tau(  61) = (   0.2499055   0.1435740   0.3999299  )
        62           Zn  tau(  62) = (   0.2506073   0.1453486   0.8016557  )
        63           Zn  tau(  63) = (   0.1250656   0.3608861   1.2011424  )
        64           Zn  tau(  64) = (   0.1242860   0.3604436   0.4001467  )
        65           Zn  tau(  65) = (   0.1252368   0.3610221   0.8023302  )
        66           Zn  tau(  66) = (   0.0000654   0.5772939   1.2011989  )
        67           Zn  tau(  67) = (  -0.0007173   0.5776686   0.3999174  )
        68           Zn  tau(  68) = (   0.0011106   0.5774519   0.8016823  )
        69           Zn  tau(  69) = (  -0.1250093   0.7938620   0.0000546  )
        70           Zn  tau(  70) = (  -0.1250152   0.7938654   0.3997695  )
        71           Zn  tau(  71) = (  -0.1250510   0.7938860   0.8013474  )
        72           Zn  tau(  72) = (   0.5000217   0.1444301   1.2011955  )
        73           Zn  tau(  73) = (   0.5000877   0.1435783   0.3999219  )
        74           Zn  tau(  74) = (   0.4993846   0.1452865   0.8016786  )
        75           Zn  tau(  75) = (   0.3750105   0.3606321   0.0009825  )
        76           Zn  tau(  76) = (   0.3750143   0.3593138   0.3973694  )
        77           Zn  tau(  77) = (   0.3750723   0.3716591   0.7983075  )
        78           Zn  tau(  78) = (   0.2498184   0.5774551   0.0009906  )
        79           Zn  tau(  79) = (   0.2486623   0.5781226   0.3973587  )
        80           Zn  tau(  80) = (   0.2593413   0.5719570   0.7983260  )
        81           Zn  tau(  81) = (   0.1250815   0.7938281   1.2011989  )
        82           Zn  tau(  82) = (   0.1243657   0.7943186   0.3999174  )
        83           Zn  tau(  83) = (   0.1254673   0.7928439   0.8016823  )
        84           Zn  tau(  84) = (   0.7499934   0.1443242   0.0000686  )
        85           Zn  tau(  85) = (   0.7500325   0.1443514   0.4001961  )
        86           Zn  tau(  86) = (   0.7498727   0.1442396   0.8013357  )
        87           Zn  tau(  87) = (   0.6249130   0.3608941   1.2011410  )
        88           Zn  tau(  88) = (   0.6257281   0.3604236   0.4001413  )
        89           Zn  tau(  89) = (   0.6248568   0.3609266   0.8023595  )
        90           Zn  tau(  90) = (   0.5001887   0.5774471   0.0009825  )
        91           Zn  tau(  91) = (   0.5013322   0.5781029   0.3973694  )
        92           Zn  tau(  92) = (   0.4906699   0.5718801   0.7983075  )
        93           Zn  tau(  93) = (   0.3749963   0.7937787   1.2011424  )
        94           Zn  tau(  94) = (   0.3749897   0.7946750   0.4001467  )
        95           Zn  tau(  95) = (   0.3749641   0.7935624   0.8023302  )
        96           O   tau(  96) = (   0.1249450   0.0722005   0.3529498  )
        97           O   tau(  97) = (   0.1254531   0.0719072   0.7534945  )
        98           O   tau(  98) = (   0.1250091   0.0721635   1.1539562  )
        99           O   tau(  99) = (  -0.0000162   0.2886569   0.3530410  )
       100           O   tau( 100) = (   0.0006286   0.2890371   0.7532614  )
       101           O   tau( 101) = (   0.0000797   0.2887110   1.1541353  )
       102           O   tau( 102) = (  -0.1249974   0.5051035   0.3529424  )
       103           O   tau( 103) = (  -0.1249853   0.5057154   0.7534963  )
       104           O   tau( 104) = (  -0.1249930   0.5051767   1.1539636  )
       105           O   tau( 105) = (  -0.2500643   0.7216495   0.3528977  )
       106           O   tau( 106) = (  -0.2502751   0.7215347   0.7532597  )
       107           O   tau( 107) = (  -0.2500294   0.7216671   1.1540586  )
       108           O   tau( 108) = (   0.3750010   0.0722436   0.3528977  )
       109           O   tau( 109) = (   0.3749950   0.0724836   0.7532597  )
       110           O   tau( 110) = (   0.3750032   0.0722046   1.1540586  )
       111           O   tau( 111) = (   0.2500362   0.2887008   0.3539667  )
       112           O   tau( 112) = (   0.2523309   0.2914073   0.7538649  )
       113           O   tau( 113) = (   0.2504243   0.2889944   1.1536158  )
       114           O   tau( 114) = (   0.1250246   0.5052020   0.3539600  )
       115           O   tau( 115) = (   0.1284252   0.5059162   0.7538637  )
       116           O   tau( 116) = (   0.1254813   0.5053948   1.1536352  )
       117           O   tau( 117) = (   0.0000491   0.7216594   0.3528920  )
       118           O   tau( 118) = (   0.0002028   0.7215707   0.7532623  )
       119           O   tau( 119) = (   0.0000305   0.7216702   1.1540697  )
       120           O   tau( 120) = (   0.6250687   0.0722055   0.3529424  )
       121           O   tau( 121) = (   0.6245450   0.0718891   0.7534963  )
       122           O   tau( 122) = (   0.6250076   0.0721651   1.1539636  )
       123           O   tau( 123) = (   0.4999888   0.2886873   0.3539558  )
       124           O   tau( 124) = (   0.4977896   0.2913204   0.7538743  )
       125           O   tau( 125) = (   0.4995986   0.2889789   1.1536332  )
       126           O   tau( 126) = (   0.3749959   0.5051838   0.3564423  )
       127           O   tau( 127) = (   0.3750063   0.5051778   1.1550981  )
       128           O   tau( 128) = (   0.2499946   0.7216562   0.3539600  )
       129           O   tau( 129) = (   0.2510763   0.7183541   0.7538637  )
       130           O   tau( 130) = (   0.2500559   0.7211643   1.1536352  )
       131           O   tau( 131) = (   0.8750077   0.0721919   0.3530410  )
       132           O   tau( 132) = (   0.8750008   0.0714434   0.7532614  )
       133           O   tau( 133) = (   0.8750088   0.0720818   1.1541353  )
       134           O   tau( 134) = (   0.7500485   0.2886471   0.3530360  )
       135           O   tau( 135) = (   0.7494730   0.2889794   0.7532587  )
       136           O   tau( 136) = (   0.7499532   0.2887021   1.1541411  )
       137           O   tau( 137) = (   0.6249838   0.5051851   0.3539558  )
       138           O   tau( 138) = (   0.6216040   0.5057731   0.7538743  )
       139           O   tau( 139) = (   0.6245363   0.5053772   1.1536332  )
       140           O   tau( 140) = (   0.4999959   0.7216436   0.3539667  )
       141           O   tau( 141) = (   0.4987993   0.7183031   0.7538649  )
       142           O   tau( 142) = (   0.4999357   0.7211607   1.1536158  )
       143           O   tau( 143) = (   0.0000093   0.1443322   0.1529244  )
       144           O   tau( 144) = (   0.0002422   0.1441977   0.5531531  )
       145           O   tau( 145) = (  -0.0000259   0.1443525   0.9535831  )
       146           O   tau( 146) = (  -0.1249970   0.3608549   0.1529300  )
       147           O   tau( 147) = (  -0.1249789   0.3611467   0.5531460  )
       148           O   tau( 148) = (  -0.1249925   0.3608271   0.9535920  )
       149           O   tau( 149) = (  -0.2501149   0.5772620   0.1528659  )
       150           O   tau( 150) = (  -0.2507158   0.5774084   0.5530766  )
       151           O   tau( 151) = (  -0.2503418   0.5772481   0.9537245  )
       152           O   tau( 152) = (  -0.3751407   0.7938044   0.1528607  )
       153           O   tau( 153) = (  -0.3753405   0.7931900   0.5530875  )
       154           O   tau( 154) = (  -0.3752714   0.7936078   0.9537100  )
       155           O   tau( 155) = (   0.2499748   0.1444855   0.1528607  )
       156           O   tau( 156) = (   0.2504070   0.1449658   0.5530875  )
       157           O   tau( 157) = (   0.2500797   0.1446970   0.9537100  )
       158           O   tau( 158) = (   0.1250808   0.3608984   0.1530124  )
       159           O   tau( 159) = (   0.1257090   0.3612849   0.5532848  )
       160           O   tau( 160) = (   0.1251271   0.3609382   0.9540348  )
       161           O   tau( 161) = (   0.0001019   0.5772677   0.1528661  )
       162           O   tau( 162) = (   0.0006933   0.5774478   0.5530727  )
       163           O   tau( 163) = (   0.0003168   0.5772726   0.9537287  )
       164           O   tau( 164) = (  -0.1250119   0.7938635   0.1529230  )
       165           O   tau( 165) = (  -0.1250375   0.7938783   0.5526887  )
       166           O   tau( 166) = (  -0.1250214   0.7938689   0.9536426  )
       167           O   tau( 167) = (   0.5000190   0.1444812   0.1528659  )
       168           O   tau( 168) = (   0.4995918   0.1449284   0.5530766  )
       169           O   tau( 169) = (   0.4999176   0.1446846   0.9537245  )
       170           O   tau( 170) = (   0.3749972   0.3610011   0.1544092  )
       171           O   tau( 171) = (   0.3750781   0.3664330   0.5562423  )
       172           O   tau( 172) = (   0.3750284   0.3625233   0.9505914  )
       173           O   tau( 173) = (   0.2501249   0.5772781   0.1544112  )
       174           O   tau( 174) = (   0.2547224   0.5746238   0.5562252  )
       175           O   tau( 175) = (   0.2514109   0.5765357   0.9505993  )
       176           O   tau( 176) = (   0.1251225   0.7938097   0.1528661  )
       177           O   tau( 177) = (   0.1252622   0.7932074   0.5530727  )
       178           O   tau( 178) = (   0.1252256   0.7936210   0.9537287  )
       179           O   tau( 179) = (   0.7499920   0.1443295   0.1529300  )
       180           O   tau( 180) = (   0.7497484   0.1441679   0.5531460  )
       181           O   tau( 181) = (   0.7500183   0.1443394   0.9535920  )
       182           O   tau( 182) = (   0.6249234   0.3608881   0.1530167  )
       183           O   tau( 183) = (   0.6243568   0.3612152   0.5532676  )
       184           O   tau( 184) = (   0.6249006   0.3609013   0.9540455  )
       185           O   tau( 185) = (   0.4998624   0.5772741   0.1544092  )
       186           O   tau( 186) = (   0.4951988   0.5744880   0.5562423  )
       187           O   tau( 187) = (   0.4985598   0.5764859   0.9505914  )
       188           O   tau( 188) = (   0.3749933   0.7937593   0.1530124  )
       189           O   tau( 189) = (   0.3749726   0.7930220   0.5532848  )
       190           O   tau( 190) = (   0.3749819   0.7936993   0.9540348  )
       191           V   tau( 191) = (   0.3750075   0.5051771   0.5968715  )

   Crystallographic axes

     site n.     atom                  positions (cryst. coord.)
         1           Zn  tau(   1) = (  0.1666399  0.0833601  0.1662570  )
         2           Zn  tau(   2) = (  0.1667381  0.0832619  0.5002734  )
         3           Zn  tau(   3) = (  0.1666813  0.0833187  0.8333981  )
         4           Zn  tau(   4) = (  0.1664321  0.3332099  0.1663873  )
         5           Zn  tau(   5) = (  0.1661959  0.3330932  0.5001072  )
         6           Zn  tau(   6) = (  0.1666355  0.3333095  0.8336208  )
         7           Zn  tau(   7) = (  0.1666331  0.5832662  0.1662564  )
         8           Zn  tau(   8) = (  0.1667421  0.5834764  0.5002789  )
         9           Zn  tau(   9) = (  0.1666790  0.5833600  0.8334049  )
        10           Zn  tau(  10) = (  0.1667140  0.8333537  0.1662304  )
        11           Zn  tau(  11) = (  0.1672301  0.8336161  0.5003417  )
        12           Zn  tau(  12) = (  0.1666916  0.8333488  0.8335641  )
        13           Zn  tau(  13) = (  0.4166463  0.0832860  0.1662304  )
        14           Zn  tau(  14) = (  0.4163839  0.0827699  0.5003417  )
        15           Zn  tau(  15) = (  0.4166512  0.0833084  0.8335641  )
        16           Zn  tau(  16) = (  0.4159717  0.3329054  0.1665389  )
        17           Zn  tau(  17) = (  0.4130748  0.3311334  0.5016360  )
        18           Zn  tau(  18) = (  0.4177736  0.3339481  0.8329489  )
        19           Zn  tau(  19) = (  0.4159624  0.5830698  0.1665341  )
        20           Zn  tau(  20) = (  0.4129924  0.5819536  0.5016347  )
        21           Zn  tau(  21) = (  0.4177522  0.5838417  0.8329721  )
        22           Zn  tau(  22) = (  0.4166366  0.8333634  0.1662281  )
        23           Zn  tau(  23) = (  0.4163476  0.8336524  0.5003476  )
        24           Zn  tau(  24) = (  0.4166323  0.8333677  0.8335773  )
        25           Zn  tau(  25) = (  0.6667338  0.0833669  0.1662564  )
        26           Zn  tau(  26) = (  0.6665236  0.0832579  0.5002789  )
        27           Zn  tau(  27) = (  0.6666400  0.0833210  0.8334049  )
        28           Zn  tau(  28) = (  0.6669431  0.3329002  0.1665334  )
        29           Zn  tau(  29) = (  0.6681309  0.3310677  0.5016450  )
        30           Zn  tau(  30) = (  0.6661950  0.3339231  0.8329682  )
        31           Zn  tau(  31) = (  0.6666660  0.5833340  0.1670506  )
        32           Zn  tau(  32) = (  0.6666562  0.5833438  0.8350279  )
        33           Zn  tau(  33) = (  0.6669302  0.8340376  0.1665341  )
        34           Zn  tau(  34) = (  0.6680464  0.8370076  0.5016347  )
        35           Zn  tau(  35) = (  0.6661583  0.8322478  0.8329721  )
        36           Zn  tau(  36) = (  0.9167901  0.0835679  0.1663873  )
        37           Zn  tau(  37) = (  0.9169068  0.0838041  0.5001072  )
        38           Zn  tau(  38) = (  0.9166905  0.0833645  0.8336208  )
        39           Zn  tau(  39) = (  0.9167937  0.3332063  0.1663873  )
        40           Zn  tau(  40) = (  0.9169185  0.3330815  0.5001065  )
        41           Zn  tau(  41) = (  0.9167045  0.3332955  0.8336373  )
        42           Zn  tau(  42) = (  0.9170998  0.5830569  0.1665334  )
        43           Zn  tau(  43) = (  0.9189323  0.5818691  0.5016450  )
        44           Zn  tau(  44) = (  0.9160769  0.5838050  0.8329682  )
        45           Zn  tau(  45) = (  0.9170946  0.8340283  0.1665389  )
        46           Zn  tau(  46) = (  0.9188666  0.8369252  0.5016360  )
        47           Zn  tau(  47) = (  0.9160519  0.8322264  0.8329489  )
        48           Zn  tau(  48) = (  0.0833435  0.1666565  0.0000491  )
        49           Zn  tau(  49) = (  0.0833101  0.1666899  0.3330980  )
        50           Zn  tau(  50) = (  0.0834097  0.1665903  0.6669610  )
        51           Zn  tau(  51) = (  0.0833487  0.4166810  0.0000571  )
        52           Zn  tau(  52) = (  0.0833174  0.4166262  0.3330948  )
        53           Zn  tau(  53) = (  0.0834464  0.4168505  0.6669750  )
        54           Zn  tau(  54) = (  0.0832264  0.6665915  0.9997900  )
        55           Zn  tau(  55) = (  0.0842100  0.6670174  0.3328667  )
        56           Zn  tau(  56) = (  0.0822375  0.6667342  0.6672604  )
        57           Zn  tau(  57) = (  0.0832234  0.9166246  0.9997808  )
        58           Zn  tau(  58) = (  0.0842150  0.9172021  0.3328733  )
        59           Zn  tau(  59) = (  0.0821658  0.9154756  0.6672414  )
        60           Zn  tau(  60) = (  0.3333754  0.1667766  0.9997808  )
        61           Zn  tau(  61) = (  0.3327979  0.1657849  0.3328733  )
        62           Zn  tau(  62) = (  0.3345244  0.1678342  0.6672414  )
        63           Zn  tau(  63) = (  0.3334233  0.4167154  0.9997458  )
        64           Zn  tau(  64) = (  0.3323882  0.4162045  0.3330538  )
        65           Zn  tau(  65) = (  0.3336730  0.4168724  0.6678028  )
        66           Zn  tau(  66) = (  0.3333662  0.6666016  0.9997928  )
        67           Zn  tau(  67) = (  0.3327998  0.6670342  0.3328629  )
        68           Zn  tau(  68) = (  0.3345026  0.6667840  0.6672635  )
        69           Zn  tau(  69) = (  0.3333271  0.9166729  0.0000454  )
        70           Zn  tau(  70) = (  0.3333232  0.9166768  0.3327398  )
        71           Zn  tau(  71) = (  0.3332993  0.9167007  0.6669848  )
        72           Zn  tau(  72) = (  0.5834085  0.1667736  0.9997900  )
        73           Zn  tau(  73) = (  0.5829826  0.1657899  0.3328667  )
        74           Zn  tau(  74) = (  0.5832658  0.1677625  0.6672604  )
        75           Zn  tau(  75) = (  0.5832215  0.4164221  0.0008177  )
        76           Zn  tau(  76) = (  0.5824642  0.4148999  0.3307421  )
        77           Zn  tau(  77) = (  0.5896497  0.4291550  0.6644546  )
        78           Zn  tau(  78) = (  0.5832122  0.6667878  0.0008245  )
        79           Zn  tau(  79) = (  0.5824415  0.6675585  0.3307332  )
        80           Zn  tau(  80) = (  0.5895609  0.6604391  0.6644700  )
        81           Zn  tau(  81) = (  0.5833984  0.9166338  0.9997928  )
        82           Zn  tau(  82) = (  0.5829658  0.9172002  0.3328629  )
        83           Zn  tau(  83) = (  0.5832160  0.9154974  0.6672635  )
        84           Zn  tau(  84) = (  0.8333190  0.1666512  0.0000571  )
        85           Zn  tau(  85) = (  0.8333738  0.1666826  0.3330948  )
        86           Zn  tau(  86) = (  0.8331495  0.1665536  0.6669750  )
        87           Zn  tau(  87) = (  0.8332753  0.4167247  0.9997446  )
        88           Zn  tau(  88) = (  0.8338187  0.4161813  0.3330493  )
        89           Zn  tau(  89) = (  0.8332378  0.4167622  0.6678271  )
        90           Zn  tau(  90) = (  0.8335779  0.6667785  0.0008177  )
        91           Zn  tau(  91) = (  0.8351001  0.6675358  0.3307421  )
        92           Zn  tau(  92) = (  0.8208450  0.6603503  0.6644546  )
        93           Zn  tau(  93) = (  0.8332846  0.9165767  0.9997458  )
        94           Zn  tau(  94) = (  0.8337955  0.9176118  0.3330538  )
        95           Zn  tau(  95) = (  0.8331276  0.9163270  0.6678028  )
        96           O   tau(  96) = (  0.1666300  0.0833700  0.2937704  )
        97           O   tau(  97) = (  0.1669687  0.0830312  0.6271554  )
        98           O   tau(  98) = (  0.1666727  0.0833273  0.9604714  )
        99           O   tau(  99) = (  0.1666399  0.3333123  0.2938463  )
       100           O   tau( 100) = (  0.1675042  0.3337513  0.6269614  )
       101           O   tau( 101) = (  0.1667671  0.3333747  0.9606204  )
       102           O   tau( 102) = (  0.1666242  0.5832434  0.2937643  )
       103           O   tau( 103) = (  0.1669897  0.5839499  0.6271569  )
       104           O   tau( 104) = (  0.1666709  0.5833278  0.9604775  )
       105           O   tau( 105) = (  0.1665802  0.8332892  0.2937271  )
       106           O   tau( 106) = (  0.1663031  0.8331565  0.6269600  )
       107           O   tau( 107) = (  0.1666253  0.8333095  0.9605566  )
       108           O   tau( 108) = (  0.4167108  0.0834198  0.2937271  )
       109           O   tau( 109) = (  0.4168435  0.0836969  0.6269600  )
       110           O   tau( 110) = (  0.4166905  0.0833747  0.9605566  )
       111           O   tau( 111) = (  0.4167177  0.3333630  0.2946168  )
       112           O   tau( 112) = (  0.4205750  0.3364882  0.6274637  )
       113           O   tau( 113) = (  0.4172753  0.3337020  0.9601880  )
       114           O   tau( 114) = (  0.4167031  0.5833570  0.2946112  )
       115           O   tau( 115) = (  0.4205160  0.5841818  0.6274627  )
       116           O   tau( 116) = (  0.4172711  0.5835797  0.9602041  )
       117           O   tau( 117) = (  0.4166994  0.8333006  0.2937223  )
       118           O   tau( 118) = (  0.4168018  0.8331982  0.6269621  )
       119           O   tau( 119) = (  0.4166870  0.8333130  0.9605658  )
       120           O   tau( 120) = (  0.6667566  0.0833758  0.2937643  )
       121           O   tau( 121) = (  0.6660501  0.0830103  0.6271569  )
       122           O   tau( 122) = (  0.6666722  0.0833291  0.9604775  )
       123           O   tau( 123) = (  0.6666625  0.3333474  0.2946077  )
       124           O   tau( 124) = (  0.6659835  0.3363878  0.6274715  )
       125           O   tau( 125) = (  0.6664406  0.3336841  0.9602025  )
       126           O   tau( 126) = (  0.6666639  0.5833361  0.2966773  )
       127           O   tau( 127) = (  0.6666709  0.5833291  0.9614218  )
       128           O   tau( 128) = (  0.6666430  0.8332969  0.2946112  )
       129           O   tau( 129) = (  0.6658182  0.8294840  0.6274627  )
       130           O   tau( 130) = (  0.6664203  0.8327289  0.9602041  )
       131           O   tau( 131) = (  0.9166877  0.0833601  0.2938463  )
       132           O   tau( 132) = (  0.9162487  0.0824958  0.6269614  )
       133           O   tau( 133) = (  0.9166253  0.0832329  0.9606204  )
       134           O   tau( 134) = (  0.9166990  0.3333010  0.2938422  )
       135           O   tau( 135) = (  0.9163153  0.3336847  0.6269591  )
       136           O   tau( 136) = (  0.9166355  0.3333645  0.9606253  )
       137           O   tau( 137) = (  0.9166526  0.5833375  0.2946077  )
       138           O   tau( 138) = (  0.9136122  0.5840165  0.6274715  )
       139           O   tau( 139) = (  0.9163159  0.5835594  0.9602025  )
       140           O   tau( 140) = (  0.9166370  0.8332823  0.2946168  )
       141           O   tau( 141) = (  0.9135118  0.8294250  0.6274637  )
       142           O   tau( 142) = (  0.9162980  0.8327247  0.9601880  )
       143           O   tau( 143) = (  0.0833395  0.1666605  0.1272834  )
       144           O   tau( 144) = (  0.0834948  0.1665052  0.4604054  )
       145           O   tau( 145) = (  0.0833161  0.1666839  0.7936950  )
       146           O   tau( 146) = (  0.0833426  0.4166794  0.1272881  )
       147           O   tau( 147) = (  0.0835292  0.4170163  0.4603995  )
       148           O   tau( 148) = (  0.0833311  0.4166473  0.7937024  )
       149           O   tau( 149) = (  0.0831675  0.6665648  0.1272348  )
       150           O   tau( 150) = (  0.0826510  0.6667338  0.4603417  )
       151           O   tau( 151) = (  0.0829326  0.6665487  0.7938127  )
       152           O   tau( 152) = (  0.0831625  0.9166064  0.1272304  )
       153           O   tau( 153) = (  0.0826079  0.9158970  0.4603508  )
       154           O   tau( 154) = (  0.0829183  0.9163795  0.7938006  )
       155           O   tau( 155) = (  0.3333936  0.1668375  0.1272304  )
       156           O   tau( 156) = (  0.3341030  0.1673921  0.4603508  )
       157           O   tau( 157) = (  0.3336205  0.1670817  0.7938006  )
       158           O   tau( 158) = (  0.3334456  0.4167296  0.1273566  )
       159           O   tau( 159) = (  0.3342970  0.4171759  0.4605151  )
       160           O   tau( 160) = (  0.3335149  0.4167756  0.7940710  )
       161           O   tau( 161) = (  0.3333875  0.6665713  0.1272349  )
       162           O   tau( 162) = (  0.3340829  0.6667793  0.4603385  )
       163           O   tau( 163) = (  0.3336053  0.6665771  0.7938162  )
       164           O   tau( 164) = (  0.3333254  0.9166746  0.1272823  )
       165           O   tau( 165) = (  0.3333083  0.9166917  0.4600189  )
       166           O   tau( 166) = (  0.3333191  0.9166809  0.7937445  )
       167           O   tau( 167) = (  0.5834352  0.1668325  0.1272348  )
       168           O   tau( 168) = (  0.5832662  0.1673489  0.4603417  )
       169           O   tau( 169) = (  0.5834513  0.1670674  0.7938127  )
       170           O   tau( 170) = (  0.5834212  0.4168482  0.1285192  )
       171           O   tau( 171) = (  0.5866383  0.4231204  0.4629767  )
       172           O   tau( 172) = (  0.5843314  0.4186059  0.7912049  )
       173           O   tau( 173) = (  0.5834166  0.6665834  0.1285209  )
       174           O   tau( 174) = (  0.5864816  0.6635184  0.4629624  )
       175           O   tau( 175) = (  0.5842739  0.6657261  0.7912115  )
       176           O   tau( 176) = (  0.5834287  0.9166125  0.1272349  )
       177           O   tau( 177) = (  0.5832207  0.9159171  0.4603385  )
       178           O   tau( 178) = (  0.5834229  0.9163947  0.7938162  )
       179           O   tau( 179) = (  0.8333206  0.1666574  0.1272881  )
       180           O   tau( 180) = (  0.8329837  0.1664708  0.4603995  )
       181           O   tau( 181) = (  0.8333527  0.1666688  0.7937024  )
       182           O   tau( 182) = (  0.8332823  0.4167177  0.1273603  )
       183           O   tau( 183) = (  0.8329045  0.4170955  0.4605007  )
       184           O   tau( 184) = (  0.8332671  0.4167329  0.7940798  )
       185           O   tau( 185) = (  0.8331518  0.6665788  0.1285192  )
       186           O   tau( 186) = (  0.8268796  0.6633617  0.4629767  )
       187           O   tau( 187) = (  0.8313941  0.6656686  0.7912049  )
       188           O   tau( 188) = (  0.8332704  0.9165544  0.1273566  )
       189           O   tau( 189) = (  0.8328241  0.9157030  0.4605151  )
       190           O   tau( 190) = (  0.8332244  0.9164851  0.7940710  )
       191           V   tau( 191) = (  0.6666717  0.5833283  0.4967936  )

     number of k points=     1  Gaussian smearing, width (Ry)=  0.0001
                       cart. coord. in units 2pi/alat
        k(    1) = (   0.0000000   0.0000000   0.0000000), wk =   1.0000000

                       cryst. coord.
        k(    1) = (   0.0000000   0.0000000   0.0000000), wk =   1.0000000

     Dense  grid:   744516 G-vectors     FFT dimensions: ( 144, 144, 180)

     Dynamical RAM for                 wfc:      55.91 MB

     Dynamical RAM for     wfc (w. buffer):      55.91 MB

     Dynamical RAM for                 EXX:     247.22 MB

     Dynamical RAM for           str. fact:       1.42 MB

     Dynamical RAM for           local pot:       0.00 MB

     Dynamical RAM for          nlocal pot:     110.40 MB

     Dynamical RAM for                qrad:       5.74 MB

     Dynamical RAM for          rho,v,vnew:       7.83 MB

     Dynamical RAM for               rhoin:       2.61 MB

     Dynamical RAM for            rho*nmix:      11.36 MB

     Dynamical RAM for           G-vectors:       1.51 MB

     Dynamical RAM for          h,s,v(r/c):     145.35 MB

     Dynamical RAM for          <psi|beta>:      23.92 MB

     Dynamical RAM for                 psi:     111.82 MB

     Dynamical RAM for                hpsi:     111.82 MB

     Dynamical RAM for      wfcinit/wfcrot:     160.03 MB

     Estimated static dynamical RAM per process >     440.11 MB

     Estimated max dynamical RAM per process >     844.37 MB

     Estimated total dynamical RAM >     209.67 GB
     EXX: ACE will be initialized later
     Generating pointlists ...
     new r_m :   0.4125 (alat units) 10.1293 (a.u.) for type    1
     new r_m :   0.0619 (alat units)  1.5190 (a.u.) for type    2
     new r_m :   0.0596 (alat units)  1.4644 (a.u.) for type    3
     new r_m :   0.0596 (alat units)  1.4644 (a.u.) for type    4

     Initial potential from superposition of free atoms

     starting charge    2482.9858, renormalised to    2482.0000
     Starting wfcs are 1340 randomized atomic wfcs

     total cpu time spent up to now is        8.1 secs

     Self-consistent Calculation

     iteration #  1     ecut=    80.00 Ry     beta= 0.50
     Davidson diagonalization with overlap

---- Real-time Memory Report at c_bands before calling an iterative solver
           555 MiB given to the printing process from OS
             0 MiB allocation reported by mallinfo(arena+hblkhd)
        176757 MiB available memory on the node where the printing process lives
------------------
     ethr =  1.00E-02,  avg # of iterations =  2.0

     total cpu time spent up to now is       23.3 secs

     total energy              =  -41197.38160277 Ry
     estimated scf accuracy    <      46.57481570 Ry

     total magnetization       =     4.00 Bohr mag/cell
     absolute magnetization    =     4.96 Bohr mag/cell

     iteration #  2     ecut=    80.00 Ry     beta= 0.50
     Davidson diagonalization with overlap

---- Real-time Memory Report at c_bands before calling an iterative solver
           777 MiB given to the printing process from OS
             0 MiB allocation reported by mallinfo(arena+hblkhd)
        175793 MiB available memory on the node where the printing process lives
------------------
     ethr =  1.88E-03,  avg # of iterations =  4.0

     total cpu time spent up to now is       53.5 secs

     total energy              =  -41211.31284481 Ry
     estimated scf accuracy    <      23.94093108 Ry

     total magnetization       =     0.00 Bohr mag/cell
     absolute magnetization    =     1.52 Bohr mag/cell

     iteration #  3     ecut=    80.00 Ry     beta= 0.50
     Davidson diagonalization with overlap

---- Real-time Memory Report at c_bands before calling an iterative solver
           786 MiB given to the printing process from OS
             0 MiB allocation reported by mallinfo(arena+hblkhd)
        175513 MiB available memory on the node where the printing process lives
------------------
     ethr =  9.65E-04,  avg # of iterations =  6.5

     total cpu time spent up to now is       89.7 secs

     total energy              =  -41210.60584163 Ry
     estimated scf accuracy    <      47.57492119 Ry

     total magnetization       =     0.00 Bohr mag/cell
     absolute magnetization    =     2.36 Bohr mag/cell

     iteration #  4     ecut=    80.00 Ry     beta= 0.50
     Davidson diagonalization with overlap

---- Real-time Memory Report at c_bands before calling an iterative solver
           786 MiB given to the printing process from OS
             0 MiB allocation reported by mallinfo(arena+hblkhd)
        175465 MiB available memory on the node where the printing process lives
------------------
     ethr =  9.65E-04,  avg # of iterations =  6.0

     total cpu time spent up to now is      113.7 secs

     total energy              =  -41215.63236157 Ry
     estimated scf accuracy    <       4.69230581 Ry

     total magnetization       =     0.00 Bohr mag/cell
     absolute magnetization    =     1.51 Bohr mag/cell

     iteration #  5     ecut=    80.00 Ry     beta= 0.50
     Davidson diagonalization with overlap

---- Real-time Memory Report at c_bands before calling an iterative solver
           789 MiB given to the printing process from OS
             0 MiB allocation reported by mallinfo(arena+hblkhd)
        175459 MiB available memory on the node where the printing process lives
------------------
     ethr =  1.89E-04,  avg # of iterations =  9.5

     total cpu time spent up to now is      145.1 secs

     total energy              =  -41215.57613656 Ry
     estimated scf accuracy    <       2.07899658 Ry

     total magnetization       =     0.00 Bohr mag/cell
     absolute magnetization    =     1.95 Bohr mag/cell

     iteration #  6     ecut=    80.00 Ry     beta= 0.50
     Davidson diagonalization with overlap

---- Real-time Memory Report at c_bands before calling an iterative solver
           794 MiB given to the printing process from OS
             0 MiB allocation reported by mallinfo(arena+hblkhd)
        175407 MiB available memory on the node where the printing process lives
------------------
     ethr =  8.38E-05,  avg # of iterations = 10.0

     total cpu time spent up to now is      178.2 secs

     total energy              =  -41215.72928275 Ry
     estimated scf accuracy    <       0.12986057 Ry

     total magnetization       =     2.00 Bohr mag/cell
     absolute magnetization    =     2.28 Bohr mag/cell

     iteration #  7     ecut=    80.00 Ry     beta= 0.50
     Davidson diagonalization with overlap

---- Real-time Memory Report at c_bands before calling an iterative solver
           798 MiB given to the printing process from OS
             0 MiB allocation reported by mallinfo(arena+hblkhd)
        175347 MiB available memory on the node where the printing process lives
------------------
     ethr =  5.23E-06,  avg # of iterations =  6.5

     total cpu time spent up to now is      205.2 secs

     total energy              =  -41215.74814069 Ry
     estimated scf accuracy    <       0.15711183 Ry

     total magnetization       =     2.00 Bohr mag/cell
     absolute magnetization    =     2.38 Bohr mag/cell

     iteration #  8     ecut=    80.00 Ry     beta= 0.50
     Davidson diagonalization with overlap

---- Real-time Memory Report at c_bands before calling an iterative solver
           801 MiB given to the printing process from OS
             0 MiB allocation reported by mallinfo(arena+hblkhd)
        175316 MiB available memory on the node where the printing process lives
------------------
     ethr =  5.23E-06,  avg # of iterations =  3.0

     total cpu time spent up to now is      222.9 secs

     total energy              =  -41215.76044176 Ry
     estimated scf accuracy    <       0.07979771 Ry

     total magnetization       =     2.00 Bohr mag/cell
     absolute magnetization    =     2.37 Bohr mag/cell

     iteration #  9     ecut=    80.00 Ry     beta= 0.50
     Davidson diagonalization with overlap

---- Real-time Memory Report at c_bands before calling an iterative solver
           804 MiB given to the printing process from OS
             0 MiB allocation reported by mallinfo(arena+hblkhd)
        175272 MiB available memory on the node where the printing process lives
------------------
     ethr =  3.22E-06,  avg # of iterations = 10.5

     total cpu time spent up to now is      261.7 secs

     total energy              =  -41215.76270880 Ry
     estimated scf accuracy    <       0.05989201 Ry

     total magnetization       =     2.00 Bohr mag/cell
     absolute magnetization    =     2.39 Bohr mag/cell

     iteration # 10     ecut=    80.00 Ry     beta= 0.50
     Davidson diagonalization with overlap

---- Real-time Memory Report at c_bands before calling an iterative solver
           807 MiB given to the printing process from OS
             0 MiB allocation reported by mallinfo(arena+hblkhd)
        175235 MiB available memory on the node where the printing process lives
------------------
     ethr =  2.41E-06,  avg # of iterations =  9.5

     total cpu time spent up to now is      301.4 secs

     total energy              =  -41215.76742760 Ry
     estimated scf accuracy    <       0.00385949 Ry

     total magnetization       =     2.00 Bohr mag/cell
     absolute magnetization    =     2.37 Bohr mag/cell

     iteration # 11     ecut=    80.00 Ry     beta= 0.50
     Davidson diagonalization with overlap

---- Real-time Memory Report at c_bands before calling an iterative solver
           810 MiB given to the printing process from OS
             0 MiB allocation reported by mallinfo(arena+hblkhd)
        175257 MiB available memory on the node where the printing process lives
------------------
     ethr =  1.55E-07,  avg # of iterations = 10.5

     total cpu time spent up to now is      367.5 secs

     total energy              =  -41215.76839926 Ry
     estimated scf accuracy    <       0.00148134 Ry

     total magnetization       =     2.00 Bohr mag/cell
     absolute magnetization    =     2.35 Bohr mag/cell

     iteration # 12     ecut=    80.00 Ry     beta= 0.50
     Davidson diagonalization with overlap

---- Real-time Memory Report at c_bands before calling an iterative solver
           812 MiB given to the printing process from OS
             0 MiB allocation reported by mallinfo(arena+hblkhd)
        175262 MiB available memory on the node where the printing process lives
------------------
     ethr =  5.97E-08,  avg # of iterations =  2.5
 
     Magnetic moment per site  (integrated on atomic sphere of radius R)
     atom   1 (R=0.062)  charge= 17.3613  magn= -0.0000
     atom   2 (R=0.062)  charge= 17.3596  magn= -0.0000
     atom   3 (R=0.062)  charge= 17.3602  magn= -0.0000
     atom   4 (R=0.062)  charge= 17.3612  magn= -0.0000
     atom   5 (R=0.062)  charge= 17.3599  magn=  0.0000
     atom   6 (R=0.062)  charge= 17.3607  magn= -0.0000
     atom   7 (R=0.062)  charge= 17.3614  magn= -0.0000
     atom   8 (R=0.062)  charge= 17.3596  magn= -0.0001
     atom   9 (R=0.062)  charge= 17.3603  magn= -0.0000
     atom  10 (R=0.062)  charge= 17.3613  magn= -0.0000
     atom  11 (R=0.062)  charge= 17.3611  magn= -0.0000
     atom  12 (R=0.062)  charge= 17.3607  magn= -0.0000
     atom  13 (R=0.062)  charge= 17.3613  magn= -0.0000
     atom  14 (R=0.062)  charge= 17.3611  magn= -0.0000
     atom  15 (R=0.062)  charge= 17.3607  magn= -0.0000
     atom  16 (R=0.062)  charge= 17.3609  magn= -0.0000
     atom  17 (R=0.062)  charge= 17.3573  magn=  0.0006
     atom  18 (R=0.062)  charge= 17.3595  magn= -0.0001
     atom  19 (R=0.062)  charge= 17.3609  magn=  0.0000
     atom  20 (R=0.062)  charge= 17.3573  magn=  0.0003
     atom  21 (R=0.062)  charge= 17.3595  magn= -0.0001
     atom  22 (R=0.062)  charge= 17.3613  magn= -0.0000
     atom  23 (R=0.062)  charge= 17.3612  magn= -0.0000
     atom  24 (R=0.062)  charge= 17.3608  magn= -0.0000
     atom  25 (R=0.062)  charge= 17.3614  magn= -0.0000
     atom  26 (R=0.062)  charge= 17.3596  magn= -0.0001
     atom  27 (R=0.062)  charge= 17.3603  magn= -0.0000
     atom  28 (R=0.062)  charge= 17.3609  magn= -0.0000
     atom  29 (R=0.062)  charge= 17.3572  magn=  0.0004
     atom  30 (R=0.062)  charge= 17.3595  magn= -0.0001
     atom  31 (R=0.062)  charge= 17.3599  magn= -0.0000
     atom  32 (R=0.062)  charge= 17.3619  magn=  0.0001
     atom  33 (R=0.062)  charge= 17.3609  magn=  0.0000
     atom  34 (R=0.062)  charge= 17.3573  magn=  0.0003
     atom  35 (R=0.062)  charge= 17.3595  magn= -0.0001
     atom  36 (R=0.062)  charge= 17.3612  magn= -0.0000
     atom  37 (R=0.062)  charge= 17.3599  magn=  0.0000
     atom  38 (R=0.062)  charge= 17.3607  magn= -0.0000
     atom  39 (R=0.062)  charge= 17.3612  magn= -0.0000
     atom  40 (R=0.062)  charge= 17.3599  magn=  0.0000
     atom  41 (R=0.062)  charge= 17.3608  magn= -0.0000
     atom  42 (R=0.062)  charge= 17.3609  magn= -0.0000
     atom  43 (R=0.062)  charge= 17.3572  magn=  0.0004
     atom  44 (R=0.062)  charge= 17.3595  magn= -0.0001
     atom  45 (R=0.062)  charge= 17.3609  magn= -0.0000
     atom  46 (R=0.062)  charge= 17.3573  magn=  0.0005
     atom  47 (R=0.062)  charge= 17.3595  magn= -0.0001
     atom  48 (R=0.062)  charge= 17.3608  magn= -0.0000
     atom  49 (R=0.062)  charge= 17.3613  magn= -0.0000
     atom  50 (R=0.062)  charge= 17.3598  magn= -0.0000
     atom  51 (R=0.062)  charge= 17.3608  magn= -0.0000
     atom  52 (R=0.062)  charge= 17.3613  magn= -0.0000
     atom  53 (R=0.062)  charge= 17.3598  magn= -0.0000
     atom  54 (R=0.062)  charge= 17.3605  magn= -0.0000
     atom  55 (R=0.062)  charge= 17.3616  magn= -0.0000
     atom  56 (R=0.062)  charge= 17.3583  magn=  0.0002
     atom  57 (R=0.062)  charge= 17.3605  magn= -0.0000
     atom  58 (R=0.062)  charge= 17.3616  magn= -0.0000
     atom  59 (R=0.062)  charge= 17.3582  magn=  0.0002
     atom  60 (R=0.062)  charge= 17.3605  magn= -0.0000
     atom  61 (R=0.062)  charge= 17.3616  magn= -0.0000
     atom  62 (R=0.062)  charge= 17.3582  magn=  0.0002
     atom  63 (R=0.062)  charge= 17.3602  magn= -0.0000
     atom  64 (R=0.062)  charge= 17.3616  magn=  0.0000
     atom  65 (R=0.062)  charge= 17.3604  magn=  0.0001
     atom  66 (R=0.062)  charge= 17.3605  magn= -0.0000
     atom  67 (R=0.062)  charge= 17.3616  magn= -0.0000
     atom  68 (R=0.062)  charge= 17.3583  magn=  0.0002
     atom  69 (R=0.062)  charge= 17.3608  magn= -0.0000
     atom  70 (R=0.062)  charge= 17.3615  magn= -0.0000
     atom  71 (R=0.062)  charge= 17.3600  magn= -0.0001
     atom  72 (R=0.062)  charge= 17.3605  magn= -0.0000
     atom  73 (R=0.062)  charge= 17.3616  magn= -0.0000
     atom  74 (R=0.062)  charge= 17.3583  magn=  0.0002
     atom  75 (R=0.062)  charge= 17.3607  magn= -0.0000
     atom  76 (R=0.062)  charge= 17.3595  magn=  0.0015
     atom  77 (R=0.062)  charge= 17.3327  magn=  0.0019
     atom  78 (R=0.062)  charge= 17.3607  magn= -0.0000
     atom  79 (R=0.062)  charge= 17.3597  magn=  0.0019
     atom  80 (R=0.062)  charge= 17.3329  magn=  0.0014
     atom  81 (R=0.062)  charge= 17.3605  magn= -0.0000
     atom  82 (R=0.062)  charge= 17.3616  magn= -0.0000
     atom  83 (R=0.062)  charge= 17.3583  magn=  0.0002
     atom  84 (R=0.062)  charge= 17.3608  magn= -0.0000
     atom  85 (R=0.062)  charge= 17.3613  magn= -0.0000
     atom  86 (R=0.062)  charge= 17.3598  magn= -0.0000
     atom  87 (R=0.062)  charge= 17.3602  magn= -0.0001
     atom  88 (R=0.062)  charge= 17.3617  magn=  0.0000
     atom  89 (R=0.062)  charge= 17.3606  magn=  0.0001
     atom  90 (R=0.062)  charge= 17.3607  magn= -0.0000
     atom  91 (R=0.062)  charge= 17.3595  magn=  0.0015
     atom  92 (R=0.062)  charge= 17.3327  magn=  0.0019
     atom  93 (R=0.062)  charge= 17.3602  magn= -0.0000
     atom  94 (R=0.062)  charge= 17.3616  magn=  0.0000
     atom  95 (R=0.062)  charge= 17.3604  magn=  0.0001
     atom  96 (R=0.060)  charge=  5.1976  magn=  0.0001
     atom  97 (R=0.060)  charge=  5.1873  magn=  0.0008
     atom  98 (R=0.060)  charge=  5.1956  magn=  0.0000
     atom  99 (R=0.060)  charge=  5.1975  magn=  0.0001
     atom 100 (R=0.060)  charge=  5.1920  magn=  0.0002
     atom 101 (R=0.060)  charge=  5.1958  magn=  0.0000
     atom 102 (R=0.060)  charge=  5.1976  magn=  0.0001
     atom 103 (R=0.060)  charge=  5.1875  magn=  0.0008
     atom 104 (R=0.060)  charge=  5.1956  magn=  0.0000
     atom 105 (R=0.060)  charge=  5.1975  magn=  0.0000
     atom 106 (R=0.060)  charge=  5.1951  magn=  0.0001
     atom 107 (R=0.060)  charge=  5.1960  magn=  0.0000
     atom 108 (R=0.060)  charge=  5.1975  magn=  0.0000
     atom 109 (R=0.060)  charge=  5.1951  magn=  0.0001
     atom 110 (R=0.060)  charge=  5.1960  magn=  0.0000
     atom 111 (R=0.060)  charge=  5.1968  magn=  0.0003
     atom 112 (R=0.060)  charge=  5.1853  magn=  0.0049
     atom 113 (R=0.060)  charge=  5.1940  magn= -0.0001
     atom 114 (R=0.060)  charge=  5.1968  magn=  0.0005
     atom 115 (R=0.060)  charge=  5.1857  magn=  0.0044
     atom 116 (R=0.060)  charge=  5.1940  magn= -0.0002
     atom 117 (R=0.060)  charge=  5.1974  magn=  0.0000
     atom 118 (R=0.060)  charge=  5.1951  magn=  0.0001
     atom 119 (R=0.060)  charge=  5.1960  magn=  0.0000
     atom 120 (R=0.060)  charge=  5.1976  magn=  0.0001
     atom 121 (R=0.060)  charge=  5.1875  magn=  0.0008
     atom 122 (R=0.060)  charge=  5.1956  magn=  0.0000
     atom 123 (R=0.060)  charge=  5.1969  magn=  0.0003
     atom 124 (R=0.060)  charge=  5.1854  magn=  0.0055
     atom 125 (R=0.060)  charge=  5.1941  magn= -0.0002
     atom 126 (R=0.060)  charge=  5.1918  magn=  0.0012
     atom 127 (R=0.060)  charge=  5.1957  magn= -0.0001
     atom 128 (R=0.060)  charge=  5.1967  magn=  0.0005
     atom 129 (R=0.060)  charge=  5.1856  magn=  0.0043
     atom 130 (R=0.060)  charge=  5.1940  magn= -0.0002
     atom 131 (R=0.060)  charge=  5.1974  magn=  0.0001
     atom 132 (R=0.060)  charge=  5.1919  magn=  0.0002
     atom 133 (R=0.060)  charge=  5.1958  magn=  0.0000
     atom 134 (R=0.060)  charge=  5.1975  magn=  0.0001
     atom 135 (R=0.060)  charge=  5.1922  magn=  0.0002
     atom 136 (R=0.060)  charge=  5.1958  magn=  0.0000
     atom 137 (R=0.060)  charge=  5.1969  magn=  0.0003
     atom 138 (R=0.060)  charge=  5.1855  magn=  0.0055
     atom 139 (R=0.060)  charge=  5.1941  magn= -0.0002
     atom 140 (R=0.060)  charge=  5.1967  magn=  0.0003
     atom 141 (R=0.060)  charge=  5.1853  magn=  0.0048
     atom 142 (R=0.060)  charge=  5.1940  magn= -0.0001
     atom 143 (R=0.060)  charge=  5.1971  magn=  0.0001
     atom 144 (R=0.060)  charge=  5.1947  magn=  0.0002
     atom 145 (R=0.060)  charge=  5.1956  magn=  0.0000
     atom 146 (R=0.060)  charge=  5.1972  magn=  0.0000
     atom 147 (R=0.060)  charge=  5.1946  magn=  0.0002
     atom 148 (R=0.060)  charge=  5.1957  magn=  0.0000
     atom 149 (R=0.060)  charge=  5.1965  magn=  0.0000
     atom 150 (R=0.060)  charge=  5.1951  magn= -0.0008
     atom 151 (R=0.060)  charge=  5.1958  magn=  0.0001
     atom 152 (R=0.060)  charge=  5.1964  magn=  0.0000
     atom 153 (R=0.060)  charge=  5.1951  magn= -0.0008
     atom 154 (R=0.060)  charge=  5.1957  magn=  0.0001
     atom 155 (R=0.060)  charge=  5.1964  magn=  0.0000
     atom 156 (R=0.060)  charge=  5.1951  magn= -0.0008
     atom 157 (R=0.060)  charge=  5.1957  magn=  0.0001
     atom 158 (R=0.060)  charge=  5.1952  magn=  0.0001
     atom 159 (R=0.060)  charge=  5.1962  magn=  0.0008
     atom 160 (R=0.060)  charge=  5.1976  magn= -0.0000
     atom 161 (R=0.060)  charge=  5.1964  magn=  0.0001
     atom 162 (R=0.060)  charge=  5.1951  magn= -0.0009
     atom 163 (R=0.060)  charge=  5.1957  magn=  0.0001
     atom 164 (R=0.060)  charge=  5.1971  magn=  0.0000
     atom 165 (R=0.060)  charge=  5.1962  magn=  0.0000
     atom 166 (R=0.060)  charge=  5.1955  magn=  0.0000
     atom 167 (R=0.060)  charge=  5.1965  magn=  0.0000
     atom 168 (R=0.060)  charge=  5.1952  magn= -0.0008
     atom 169 (R=0.060)  charge=  5.1958  magn=  0.0001
     atom 170 (R=0.060)  charge=  5.1945  magn=  0.0000
     atom 171 (R=0.060)  charge=  5.1978  magn=  0.0014
     atom 172 (R=0.060)  charge=  5.1901  magn= -0.0035
     atom 173 (R=0.060)  charge=  5.1945  magn=  0.0000
     atom 174 (R=0.060)  charge=  5.1979  magn=  0.0020
     atom 175 (R=0.060)  charge=  5.1903  magn= -0.0036
     atom 176 (R=0.060)  charge=  5.1964  magn=  0.0001
     atom 177 (R=0.060)  charge=  5.1951  magn= -0.0009
     atom 178 (R=0.060)  charge=  5.1958  magn=  0.0001
     atom 179 (R=0.060)  charge=  5.1972  magn=  0.0000
     atom 180 (R=0.060)  charge=  5.1946  magn=  0.0002
     atom 181 (R=0.060)  charge=  5.1957  magn=  0.0000
     atom 182 (R=0.060)  charge=  5.1953  magn=  0.0000
     atom 183 (R=0.060)  charge=  5.1965  magn=  0.0007
     atom 184 (R=0.060)  charge=  5.1977  magn=  0.0000
     atom 185 (R=0.060)  charge=  5.1945  magn=  0.0000
     atom 186 (R=0.060)  charge=  5.1978  magn=  0.0015
     atom 187 (R=0.060)  charge=  5.1901  magn= -0.0035
     atom 188 (R=0.060)  charge=  5.1952  magn=  0.0001
     atom 189 (R=0.060)  charge=  5.1961  magn=  0.0008
     atom 190 (R=0.060)  charge=  5.1977  magn= -0.0000
     atom 191 (R=0.060)  charge=  9.5290  magn=  1.3656

     total cpu time spent up to now is      383.5 secs

     End of self-consistent calculation

 ------ SPIN UP ------------


          k = 0.0000 0.0000 0.0000 ( 93039 PWs)   bands (ev):

  -114.0796-114.0691-114.0680-113.7538-113.7536-113.7517-113.7513-113.7513
  -113.7513-113.7335-113.7327-113.7234-113.4847-113.4843-113.4829-113.4717
  -113.4650-113.4629-113.4627-113.4615-113.4597-113.4597-113.4586-113.4569
  -113.4564-113.4548-113.4547-113.4543-113.4542-113.4542-113.4540-113.4534
  -113.4532-113.4531-113.4422-113.4368-113.4368-113.4354-113.4352-113.4347
  -113.4345-113.4020-113.4018-113.4001-113.3998-113.3985-113.3983-113.3975
  -113.3974-113.3974-113.3973-113.3968-113.3967-113.3967-113.3931-113.3930
  -113.3927-113.3925-113.3924-113.3917-113.3869-113.3751-113.3751-113.3744
  -113.3534-113.3533-113.3529-113.3525-113.3524-113.3524-113.3515-113.3509
  -113.3507-113.3462-113.3445-113.3444-113.3418-113.3418-113.3415-113.3398
  -113.3398-113.3394-113.3330-113.3329-113.3328-113.3324-113.3324-113.3316
  -113.3315-113.3313-113.3312-113.3173-113.3158-113.3158-113.3154 -68.3024
   -68.2920 -68.2904 -68.2415 -68.2400 -68.2316 -68.2304 -68.2298 -68.2287
   -67.9825 -67.9823 -67.9802 -67.9801 -67.9799 -67.9794 -67.9648 -67.9640
   -67.9546 -67.9489 -67.9482 -67.9467 -67.9464 -67.9459 -67.9458 -67.9396
   -67.9392 -67.9374 -67.9370 -67.9368 -67.9367 -67.9267 -67.9257 -67.9213
   -67.9204 -67.9166 -67.9110 -67.6918 -67.6915 -67.6906 -67.6902 -67.6900
   -67.6889 -67.6866 -67.6855 -67.6852 -67.6837 -67.6732 -67.6720 -67.6714
   -67.6714 -67.6710 -67.6706 -67.6698 -67.6697 -67.6687 -67.6687 -67.6681
   -67.6675 -67.6670 -67.6666 -67.6665 -67.6662 -67.6660 -67.6656 -67.6645
   -67.6643 -67.6639 -67.6638 -67.6637 -67.6637 -67.6635 -67.6634 -67.6634
   -67.6623 -67.6619 -67.6614 -67.6609 -67.6608 -67.6608 -67.6606 -67.6604
   -67.6598 -67.6591 -67.6589 -67.6586 -67.6586 -67.6584 -67.6578 -67.6572
   -67.6570 -67.6561 -67.6558 -67.6556 -67.6553 -67.6551 -67.6549 -67.6542
   -67.6538 -67.6538 -67.6536 -67.6534 -67.6533 -67.6493 -67.6474 -67.6474
   -67.6474 -67.6473 -67.6460 -67.6458 -67.6453 -67.6450 -67.6415 -67.6415
   -67.6402 -67.6396 -67.6394 -67.6392 -67.6391 -67.6390 -67.6376 -67.6373
   -67.6372 -67.6364 -67.6139 -67.6138 -67.6121 -67.6117 -67.6104 -67.6102
   -67.6057 -67.6054 -67.6053 -67.6052 -67.6052 -67.6050 -67.6050 -67.6046
   -67.6046 -67.6037 -67.6033 -67.6030 -67.6029 -67.6019 -67.6017 -67.6016
   -67.6015 -67.6014 -67.6014 -67.6013 -67.6012 -67.6011 -67.6011 -67.6010
   -67.6009 -67.6008 -67.6008 -67.6001 -67.5998 -67.5996 -67.5987 -67.5985
   -67.5985 -67.5985 -67.5984 -67.5980 -67.5979 -67.5975 -67.5975 -67.5975
   -67.5974 -67.5974 -67.5973 -67.5972 -67.5971 -67.5969 -67.5966 -67.5965
   -67.5965 -67.5961 -67.5958 -67.5928 -67.5912 -67.5911 -67.5850 -67.5849
   -67.5843 -67.5786 -67.5780 -67.5776 -67.5773 -67.5772 -67.5767 -67.5631
   -67.5631 -67.5627 -67.5622 -67.5621 -67.5619 -67.5612 -67.5604 -67.5602
   -67.5575 -67.5574 -67.5572 -67.5570 -67.5569 -67.5569 -67.5565 -67.5562
   -67.5561 -67.5560 -67.5556 -67.5555 -67.5553 -67.5551 -67.5548 -67.5548
   -67.5546 -67.5540 -67.5538 -67.5531 -67.5530 -67.5503 -67.5490 -67.5489
   -67.5487 -67.5487 -67.5486 -67.5482 -67.5471 -67.5470 -67.5469 -67.5468
   -67.5466 -67.5465 -67.5464 -67.5464 -67.5460 -67.5452 -67.5450 -67.5439
   -67.5438 -67.5437 -67.5436 -67.5435 -67.5432 -67.5412 -67.5411 -67.5407
   -67.5405 -67.5404 -67.5404 -67.5403 -67.5401 -67.5400 -67.5377 -67.5372
   -67.5371 -67.5366 -67.5366 -67.5364 -67.5363 -67.5362 -67.5356 -67.5355
   -67.5354 -67.5351 -67.5351 -67.5349 -67.5345 -67.5343 -67.5340 -67.5337
   -67.5262 -67.5246 -67.5246 -67.5242 -67.5210 -67.5210 -67.5201 -67.5197
   -67.5197 -67.5192 -67.5191 -67.5190 -54.0720 -28.1153 -28.1100 -27.9554
    -8.1467  -7.9029  -7.8966  -7.8848  -7.7762  -7.7428  -7.6717  -7.6711
    -7.6321  -7.6124  -7.6111  -7.5896  -7.5483  -7.5476  -7.5245  -7.4997
    -7.4995  -7.4969  -7.4961  -7.4829  -7.4823  -7.4786  -7.4753  -7.4487
    -7.4135  -7.3746  -7.3549  -7.3311  -7.3235  -7.3216  -7.3104  -7.3100
    -7.2891  -7.2890  -7.2866  -7.2645  -7.2643  -7.2635  -7.2582  -7.2569
    -7.2543  -7.2536  -7.2526  -7.2252  -7.2249  -7.2235  -7.2137  -7.2096
    -7.2093  -7.2049  -7.2038  -7.1983  -7.1937  -7.1935  -7.1869  -7.1863
    -7.1799  -7.1794  -7.1773  -7.1713  -7.1656  -7.1620  -7.1619  -7.1428
    -7.1427  -7.1407  -7.1094  -7.1044  -7.1037  -7.0962  -7.0961  -7.0899
    -7.0864  -7.0862  -7.0792  -7.0791  -7.0772  -7.0767  -7.0637  -7.0636
    -7.0553  -7.0549  -7.0545  -7.0516  -7.0515  -7.0472  -7.0153  -7.0088
    -7.0082  -6.9972  -6.9861  -6.9858  -6.9821  -6.9819  -6.9815   3.8139
     3.8645   3.8663   3.9042   3.9072   3.9077   3.9189   3.9239   3.9243
     3.9358   3.9494   3.9495   3.9571   3.9572   3.9764   3.9819   3.9822
     4.0031   4.0163   4.0168   4.0280   4.0455   4.0459   4.0543   4.0627
     4.0724   4.0728   4.0743   4.0899   4.0904   4.0906   4.1000   4.1005
     4.1041   4.1070   4.1071   4.1109   4.1148   4.1155   4.1191   4.1271
     4.1274   4.1280   4.1326   4.1352   4.1353   4.1376   4.1377   4.1397
     4.1428   4.1504   4.1510   4.1512   4.1541   4.1541   4.1660   4.1664
     4.1815   4.1871   4.1969   4.2058   4.2062   4.2148   4.2226   4.2228
     4.2345   4.2346   4.2363   4.2364   4.2395   4.2418   4.2420   4.2428
     4.2529   4.2628   4.2649   4.2652   4.2874   4.2881   4.2943   4.2998
     4.3002   4.3197   4.3200   4.3255   4.3288   4.3323   4.3412   4.3416
     4.3583   4.3602   4.3653   4.3654   4.3793   4.3796   4.3897   4.3898
     4.3927   4.3932   4.3968   4.3971   4.4066   4.4089   4.4092   4.4176
     4.4229   4.4231   4.4283   4.4308   4.4309   4.4427   4.4428   4.4475
     4.4576   4.4578   4.4731   4.4732   4.4779   4.4863   4.4864   4.5030
     4.5057   4.5057   4.5239   4.5242   4.5284   4.5298   4.5319   4.5323
     4.5355   4.5357   4.5385   4.5417   4.5418   4.5432   4.5492   4.5493
     4.5504   4.5607   4.5608   4.5704   4.5707   4.5717   4.5779   4.5817
     4.5840   4.5840   4.5861   4.5863   4.5866   4.5890   4.5908   4.5964
     4.5967   4.6094   4.6144   4.6146   4.6160   4.6178   4.6181   4.6306
     4.6387   4.6390   4.6449   4.6451   4.6452   4.6507   4.6520   4.6520
     4.6553   4.6557   4.6581   4.6616   4.6627   4.6631   4.6642   4.6646
     4.6681   4.6681   4.6749   4.6768   4.6770   4.6789   4.6831   4.6832
     4.6836   4.6868   4.6869   4.6876   4.6897   4.6917   4.6918   4.6935
     4.6935   4.7015   4.7022   4.7023   4.7027   4.7034   4.7081   4.7083
     4.7141   4.7159   4.7162   4.7228   4.7231   4.7280   4.7412   4.7412
     4.7470   4.7588   4.7689   4.7689   4.7729   4.7859   4.7861   4.7977
     4.7978   4.8012   4.8014   4.8016   4.8060   4.8384   4.8497   4.8509
     4.8512   4.8646   4.8647   4.8746   4.8753   4.8898   4.8917   4.8928
     4.8930   4.8960   4.8964   4.9101   4.9101   4.9118   4.9174   4.9176
     4.9177   4.9183   4.9259   4.9261   4.9276   4.9319   4.9327   4.9333
     4.9438   4.9488   4.9494   4.9504   4.9504   4.9655   4.9656   4.9691
     4.9693   4.9703   4.9737   4.9753   4.9788   4.9794   4.9804   4.9806
     4.9951   4.9953   5.0134   5.0316   5.0317   5.0366   5.0514   5.0519
     5.0766   5.1084   5.1087   5.1125   5.1215   5.1217   5.1339   5.1341
     5.1352   5.1509   5.1513   5.1596   5.1787   5.1805   5.1952   5.2038
     5.2417   5.2420   5.2454   5.2462   5.2543   5.2844   5.2983   5.2996
     5.3020   5.3073   5.3077   5.3235   5.3267   5.3364   5.3368   5.3562
     5.3566   5.3676   5.3745   5.3750   5.3877   5.3987   5.3988   5.4202
     5.4209   5.4291   5.4351   5.4353   5.4364   5.4492   5.4492   5.4518
     5.4581   5.4584   5.4692   5.4693   5.4767   5.4876   5.4877   5.4883
     5.4964   5.4971   5.4972   5.5005   5.5006   5.5024   5.5088   5.5089
     5.5163   5.5197   5.5200   5.5217   5.5261   5.5349   5.5357   5.5357
     5.5420   5.5427   5.5427   5.5473   5.5479   5.5501   5.5504   5.5508
     5.5513   5.5529   5.5532   5.5537   5.5537   5.5665   5.5724   5.5727
     5.5729   5.5798   5.5838   5.5840   5.5899   5.5899   5.5930   5.5931
     5.5965   5.6116   5.6117   5.6139   5.6161   5.6161   5.6186   5.6251
     5.6256   5.6294   5.6325   5.6325   5.6380   5.6387   5.6390   5.6476
     5.6480   5.6484   5.6507   5.6528   5.6528   5.6546   5.6610   5.6611
     5.6629   5.6685   5.6686   5.6690   5.6713   5.6762   5.6763   5.6822
     5.6823   5.6855   5.6857   5.6930   5.6959   5.6960   5.7036   5.7038
     5.7049   5.7052   5.7054   5.7108   5.7108   5.7125   5.7158   5.7158
     5.7159   5.7208   5.7208   5.7217   5.7226   5.7272   5.7291   5.7292
     5.7329   5.7353   5.7355   5.7377   5.7393   5.7396   5.7402   5.7449
     5.7487   5.7489   5.7512   5.7512   5.7666   5.7668   5.7689   5.7743
     5.7745   5.7881   5.7903   5.7907   5.7992   5.8013   5.8013   5.8060
     5.8107   5.8107   5.8394   5.8492   5.8494   5.8494   5.8569   5.8570
     5.8571   5.8678   5.8798   5.8799   5.8828   5.8839   5.8840   5.9063
     5.9064   5.9120   5.9121   5.9287   5.9503   5.9506   5.9539   5.9783
     5.9787   5.9795   5.9839   6.0083   6.0087   6.0090   6.0184   6.0187
     6.0272   6.0581   6.0584   6.0842   6.0948   6.1066   6.1066   6.1604
     6.1608   6.1761   6.1946   6.2048   6.2052   6.2156   6.2186   6.2257
     6.3069   6.3073   6.3265   6.3266   6.3332   6.3401   6.3598   6.3599
     6.3613   6.3625   6.3951   6.3953   6.4078   6.4230   6.4260   6.4260
     6.4385   6.4385   6.4881   6.5089   6.5091   6.5364   6.5380   6.5633
     6.7038   6.7041   6.7236   6.7557   6.7574   6.7815   6.7838   6.7839
     6.8076   6.8077   6.8351   6.8352   6.8494   6.8542   6.8786   6.8789
     6.9086   6.9088   6.9566   6.9573   6.9839   7.0206   7.0220   7.0221
     7.0371   7.0371   7.0415   7.0575   7.0603   7.0833   7.0838   7.1408
     7.1502   7.1508   7.1577   7.2036   7.2037   7.2418   7.2419   7.2459
     7.3256   7.3256   7.3553   7.3745   7.3873   7.3880   7.3911   7.3912
     7.3961   7.4276   7.4451   7.4452   7.4521   7.4674   7.4690   7.4691
     7.4779   7.4830   7.4833   7.5336   7.5801   7.5806   7.6288   7.6339
     7.6341   7.7035   7.7036   7.7117   7.7193   7.7193   7.7310   7.7313
     7.7331   7.7352   7.7590   7.7969   7.7974   7.8777   7.8780   7.9448
     7.9459   7.9902   8.0466   8.0467   8.0581   8.0813   8.0814   8.0845
     8.0925   8.1182   8.1185   8.1226   8.1228   8.1363   8.1554   8.1556
     8.1560   8.1566   8.1699   8.1702   8.1745   8.1906   8.1920   8.1922
     8.2051   8.2102   8.2105   8.2361   8.2418   8.2419   8.2935   8.2937
     8.2940   8.3054   8.3219   8.3220   8.3430   8.3433   8.3512   8.3662
     8.3667   8.3790   8.3792   8.3991   8.4195   8.4196   8.4205   8.4265
     8.4492   8.4493   8.4582   8.5044   8.5049   8.5091   8.5312   8.5548
     8.5566   8.5569   8.5962   8.5966   8.6262   8.7109   8.7110   8.7190
     8.7279   8.7281   8.7494   8.7586   8.7587   8.7812   8.7897   8.8039
     8.8049   8.8050   8.8231   8.8234   8.8334   8.8335   8.8337   8.8373
     8.8456   8.8457   8.8484   8.8571   8.8573   8.8587   8.8603   8.8735
     8.8736   8.8797   8.9000   8.9000   8.9012   8.9365   8.9370   8.9862
     8.9975   8.9978   9.0053   9.0072   9.0123   9.0123   9.0124   9.0254
     9.0257   9.0313   9.0317   9.0837   9.0837   9.1105   9.1415   9.1415
     9.1854   9.1916   9.2151   9.2151   9.2289   9.2292   9.2686   9.2689
     9.2790   9.2793   9.2856   9.2860   9.2981   9.3013   9.3386   9.3424
     9.3426   9.3613   9.3615   9.3669   9.3829   9.3952   9.3953   9.3986
     9.4355   9.4582   9.4584   9.4603   9.4607   9.5122   9.5122   9.5642
     9.5643   9.5843   9.6096   9.6097   9.6481   9.6584   9.6584   9.6652
     9.7863   9.7947   9.7949   9.8525   9.8527   9.9538  10.0556  10.0557
    11.0271  11.0290  11.0798  12.1934  12.5192  12.6252  12.6311  12.6892
    13.1487  13.1505  13.3587  13.3591  13.3866  13.5490  13.8837  13.8846
    13.9057  14.0413  14.0425  14.0536

     occupation numbers 
     1.0000   1.0000   1.0000   1.0000   1.0000   1.0000   1.0000   1.0000
     1.0000   1.0000   1.0000   1.0000   1.0000   1.0000   1.0000   1.0000
     1.0000   1.0000   1.0000   1.0000   1.0000   1.0000   1.0000   1.0000
     1.0000   1.0000   1.0000   1.0000   1.0000   1.0000   1.0000   1.0000
     1.0000   1.0000   1.0000   1.0000   1.0000   1.0000   1.0000   1.0000
     1.0000   1.0000   1.0000   1.0000   1.0000   1.0000   1.0000   1.0000
     1.0000   1.0000   1.0000   1.0000   1.0000   1.0000   1.0000   1.0000
     1.0000   1.0000   1.0000   1.0000   1.0000   1.0000   1.0000   1.0000
     1.0000   1.0000   1.0000   1.0000   1.0000   1.0000   1.0000   1.0000
     1.0000   1.0000   1.0000   1.0000   1.0000   1.0000   1.0000   1.0000
     1.0000   1.0000   1.0000   1.0000   1.0000   1.0000   1.0000   1.0000
     1.0000   1.0000   1.0000   1.0000   1.0000   1.0000   1.0000   1.0000
     1.0000   1.0000   1.0000   1.0000   1.0000   1.0000   1.0000   1.0000
     1.0000   1.0000   1.0000   1.0000   1.0000   1.0000   1.0000   1.0000
     1.0000   1.0000   1.0000   1.0000   1.0000   1.0000   1.0000   1.0000
     1.0000   1.0000   1.0000   1.0000   1.0000   1.0000   1.0000   1.0000
     1.0000   1.0000   1.0000   1.0000   1.0000   1.0000   1.0000   1.0000
     1.0000   1.0000   1.0000   1.0000   1.0000   1.0000   1.0000   1.0000
     1.0000   1.0000   1.0000   1.0000   1.0000   1.0000   1.0000   1.0000
     1.0000   1.0000   1.0000   1.0000   1.0000   1.0000   1.0000   1.0000
     1.0000   1.0000   1.0000   1.0000   1.0000   1.0000   1.0000   1.0000
     1.0000   1.0000   1.0000   1.0000   1.0000   1.0000   1.0000   1.0000
     1.0000   1.0000   1.0000   1.0000   1.0000   1.0000   1.0000   1.0000
     1.0000   1.0000   1.0000   1.0000   1.0000   1.0000   1.0000   1.0000
     1.0000   1.0000   1.0000   1.0000   1.0000   1.0000   1.0000   1.0000
     1.0000   1.0000   1.0000   1.0000   1.0000   1.0000   1.0000   1.0000
     1.0000   1.0000   1.0000   1.0000   1.0000   1.0000   1.0000   1.0000
     1.0000   1.0000   1.0000   1.0000   1.0000   1.0000   1.0000   1.0000
     1.0000   1.0000   1.0000   1.0000   1.0000   1.0000   1.0000   1.0000
     1.0000   1.0000   1.0000   1.0000   1.0000   1.0000   1.0000   1.0000
     1.0000   1.0000   1.0000   1.0000   1.0000   1.0000   1.0000   1.0000
     1.0000   1.0000   1.0000   1.0000   1.0000   1.0000   1.0000   1.0000
     1.0000   1.0000   1.0000   1.0000   1.0000   1.0000   1.0000   1.0000
     1.0000   1.0000   1.0000   1.0000   1.0000   1.0000   1.0000   1.0000
     1.0000   1.0000   1.0000   1.0000   1.0000   1.0000   1.0000   1.0000
     1.0000   1.0000   1.0000   1.0000   1.0000   1.0000   1.0000   1.0000
     1.0000   1.0000   1.0000   1.0000   1.0000   1.0000   1.0000   1.0000
     1.0000   1.0000   1.0000   1.0000   1.0000   1.0000   1.0000   1.0000
     1.0000   1.0000   1.0000   1.0000   1.0000   1.0000   1.0000   1.0000
     1.0000   1.0000   1.0000   1.0000   1.0000   1.0000   1.0000   1.0000
     1.0000   1.0000   1.0000   1.0000   1.0000   1.0000   1.0000   1.0000
     1.0000   1.0000   1.0000   1.0000   1.0000   1.0000   1.0000   1.0000
     1.0000   1.0000   1.0000   1.0000   1.0000   1.0000   1.0000   1.0000
     1.0000   1.0000   1.0000   1.0000   1.0000   1.0000   1.0000   1.0000
     1.0000   1.0000   1.0000   1.0000   1.0000   1.0000   1.0000   1.0000
     1.0000   1.0000   1.0000   1.0000   1.0000   1.0000   1.0000   1.0000
     1.0000   1.0000   1.0000   1.0000   1.0000   1.0000   1.0000   1.0000
     1.0000   1.0000   1.0000   1.0000   1.0000   1.0000   1.0000   1.0000
     1.0000   1.0000   1.0000   1.0000   1.0000   1.0000   1.0000   1.0000
     1.0000   1.0000   1.0000   1.0000   1.0000   1.0000   1.0000   1.0000
     1.0000   1.0000   1.0000   1.0000   1.0000   1.0000   1.0000   1.0000
     1.0000   1.0000   1.0000   1.0000   1.0000   1.0000   1.0000   1.0000
     1.0000   1.0000   1.0000   1.0000   1.0000   1.0000   1.0000   1.0000
     1.0000   1.0000   1.0000   1.0000   1.0000   1.0000   1.0000   1.0000
     1.0000   1.0000   1.0000   1.0000   1.0000   1.0000   1.0000   1.0000
     1.0000   1.0000   1.0000   1.0000   1.0000   1.0000   1.0000   1.0000
     1.0000   1.0000   1.0000   1.0000   1.0000   1.0000   1.0000   1.0000
     1.0000   1.0000   1.0000   1.0000   1.0000   1.0000   1.0000   1.0000
     1.0000   1.0000   1.0000   1.0000   1.0000   1.0000   1.0000   1.0000
     1.0000   1.0000   1.0000   1.0000   1.0000   1.0000   1.0000   1.0000
     1.0000   1.0000   1.0000   1.0000   1.0000   1.0000   1.0000   1.0000
     1.0000   1.0000   1.0000   1.0000   1.0000   1.0000   1.0000   1.0000
     1.0000   1.0000   1.0000   1.0000   1.0000   1.0000   1.0000   1.0000
     1.0000   1.0000   1.0000   1.0000   1.0000   1.0000   1.0000   1.0000
     1.0000   1.0000   1.0000   1.0000   1.0000   1.0000   1.0000   1.0000
     1.0000   1.0000   1.0000   1.0000   1.0000   1.0000   1.0000   1.0000
     1.0000   1.0000   1.0000   1.0000   1.0000   1.0000   1.0000   1.0000
     1.0000   1.0000   1.0000   1.0000   1.0000   1.0000   1.0000   1.0000
     1.0000   1.0000   1.0000   1.0000   1.0000   1.0000   1.0000   1.0000
     1.0000   1.0000   1.0000   1.0000   1.0000   1.0000   1.0000   1.0000
     1.0000   1.0000   1.0000   1.0000   1.0000   1.0000   1.0000   1.0000
     1.0000   1.0000   1.0000   1.0000   1.0000   1.0000   1.0000   1.0000
     1.0000   1.0000   1.0000   1.0000   1.0000   1.0000   1.0000   1.0000
     1.0000   1.0000   1.0000   1.0000   1.0000   1.0000   1.0000   1.0000
     1.0000   1.0000   1.0000   1.0000   1.0000   1.0000   1.0000   1.0000
     1.0000   1.0000   1.0000   1.0000   1.0000   1.0000   1.0000   1.0000
     1.0000   1.0000   1.0000   1.0000   1.0000   1.0000   1.0000   1.0000
     1.0000   1.0000   1.0000   1.0000   1.0000   1.0000   1.0000   1.0000
     1.0000   1.0000   1.0000   1.0000   1.0000   1.0000   1.0000   1.0000
     1.0000   1.0000   1.0000   1.0000   1.0000   1.0000   1.0000   1.0000
     1.0000   1.0000   1.0000   1.0000   1.0000   1.0000   1.0000   1.0000
     1.0000   1.0000   1.0000   1.0000   1.0000   1.0000   1.0000   1.0000
     1.0000   1.0000   1.0000   1.0000   1.0000   1.0000   1.0000   1.0000
     1.0000   1.0000   1.0000   1.0000   1.0000   1.0000   1.0000   1.0000
     1.0000   1.0000   1.0000   1.0000   1.0000   1.0000   1.0000   1.0000
     1.0000   1.0000   1.0000   1.0000   1.0000   1.0000   1.0000   1.0000
     1.0000   1.0000   1.0000   1.0000   1.0000   1.0000   1.0000   1.0000
     1.0000   1.0000   1.0000   1.0000   1.0000   1.0000   1.0000   1.0000
     1.0000   1.0000   1.0000   1.0000   1.0000   1.0000   1.0000   1.0000
     1.0000   1.0000   1.0000   1.0000   1.0000   1.0000   1.0000   1.0000
     1.0000   1.0000   1.0000   1.0000   1.0000   1.0000   1.0000   1.0000
     1.0000   1.0000   1.0000   1.0000   1.0000   1.0000   1.0000   1.0000
     1.0000   1.0000   1.0000   1.0000   1.0000   1.0000   1.0000   1.0000
     1.0000   1.0000   1.0000   1.0000   1.0000   1.0000   1.0000   1.0000
     1.0000   1.0000   1.0000   1.0000   1.0000   1.0000   1.0000   1.0000
     1.0000   1.0000   1.0000   1.0000   1.0000   1.0000   1.0000   1.0000
     1.0000   1.0000   1.0000   1.0000   1.0000   1.0000   1.0000   1.0000
     1.0000   1.0000   1.0000   1.0000   1.0000   1.0000   1.0000   1.0000
     1.0000   1.0000   1.0000   1.0000   1.0000   1.0000   1.0000   1.0000
     1.0000   1.0000   1.0000   1.0000   1.0000   1.0000   1.0000   1.0000
     1.0000   1.0000   1.0000   1.0000   1.0000   1.0000   1.0000   1.0000
     1.0000   1.0000   1.0000   1.0000   1.0000   1.0000   1.0000   1.0000
     1.0000   1.0000   1.0000   1.0000   1.0000   1.0000   1.0000   1.0000
     1.0000   1.0000   1.0000   1.0000   1.0000   1.0000   1.0000   1.0000
     1.0000   1.0000   1.0000   1.0000   1.0000   1.0000   1.0000   1.0000
     1.0000   1.0000   1.0000   1.0000   1.0000   1.0000   1.0000   1.0000
     1.0000   1.0000   1.0000   1.0000   1.0000   1.0000   1.0000   1.0000
     1.0000   1.0000   1.0000   1.0000   1.0000   1.0000   1.0000   1.0000
     1.0000   1.0000   1.0000   1.0000   1.0000   1.0000   1.0000   1.0000
     1.0000   1.0000   1.0000   1.0000   1.0000   1.0000   1.0000   1.0000
     1.0000   1.0000   1.0000   1.0000   1.0000   1.0000   1.0000   1.0000
     1.0000   1.0000   1.0000   1.0000   1.0000   1.0000   1.0000   1.0000
     1.0000   1.0000   1.0000   1.0000   1.0000   1.0000   1.0000   1.0000
     1.0000   1.0000   1.0000   1.0000   1.0000   1.0000   1.0000   1.0000
     1.0000   1.0000   1.0000   1.0000   1.0000   1.0000   1.0000   1.0000
     1.0000   1.0000   1.0000   1.0000   1.0000   1.0000   1.0000   1.0000
     1.0000   1.0000   1.0000   1.0000   1.0000   1.0000   1.0000   1.0000
     1.0000   1.0000   1.0000   1.0000   1.0000   1.0000   1.0000   1.0000
     1.0000   1.0000   1.0000   1.0000   1.0000   1.0000   1.0000   1.0000
     1.0000   1.0000   1.0000   1.0000   1.0000   1.0000   1.0000   1.0000
     1.0000   1.0000   1.0000   1.0000   1.0000   1.0000   1.0000   1.0000
     1.0000   1.0000   1.0000   1.0000   1.0000   1.0000   1.0000   1.0000
     1.0000   1.0000   1.0000   1.0000   1.0000   1.0000   1.0000   1.0000
     1.0000   1.0000   1.0000   1.0000   1.0000   1.0000   1.0000   1.0000
     1.0000   1.0000   1.0000   1.0000   1.0000   1.0000   1.0000   1.0000
     1.0000   1.0000   1.0000   1.0000   1.0000   1.0000   1.0000   1.0000
     1.0000   1.0000   1.0000   1.0000   1.0000   1.0000   1.0000   1.0000
     1.0000   1.0000   1.0000   1.0000   1.0000   1.0000   1.0000   1.0000
     1.0000   1.0000   1.0000   1.0000   1.0000   1.0000   1.0000   1.0000
     1.0000   1.0000   1.0000   1.0000   1.0000   1.0000   1.0000   1.0000
     1.0000   1.0000   1.0000   1.0000   1.0000   1.0000   1.0000   1.0000
     1.0000   1.0000   1.0000   1.0000   1.0000   1.0000   1.0000   1.0000
     1.0000   1.0000   1.0000   1.0000   1.0000   1.0000   1.0000   1.0000
     1.0000   1.0000   1.0000   1.0000   1.0000   1.0000   1.0000   1.0000
     1.0000   1.0000   1.0000   1.0000   1.0000   1.0000   1.0000   1.0000
     1.0000   1.0000   1.0000   1.0000   1.0000   1.0000   1.0000   1.0000
     1.0000   1.0000   1.0000   1.0000   1.0000   1.0000   1.0000   1.0000
     1.0000   1.0000   1.0000   1.0000   1.0000   1.0000   1.0000   1.0000
     1.0000   1.0000   1.0000   1.0000   1.0000   1.0000   1.0000   1.0000
     1.0000   1.0000   1.0000   1.0000   1.0000   1.0000   1.0000   1.0000
     1.0000   1.0000   1.0000   1.0000   1.0000   1.0000   1.0000   1.0000
     1.0000   1.0000   1.0000   1.0000   1.0000   1.0000   1.0000   1.0000
     1.0000   1.0000   1.0000   1.0000   1.0000   1.0000   1.0000   1.0000
     1.0000   1.0000   1.0000   1.0000   1.0000   1.0000   1.0000   1.0000
     1.0000   1.0000   1.0000   1.0000   1.0000   1.0000   1.0000   1.0000
[...]
     2.9771   2.9785   2.9815   2.9817   2.9833   2.9863   2.9865   2.9890
     2.9892   2.9902   3.0006   3.0022   3.0055   3.0058   3.0110   3.0111
     3.0149   3.0182   3.0183   3.0234   3.0236   3.0247   3.0326   3.0356
     3.0358   3.0358   3.0366   3.0366   3.0442   3.0443   3.0497   3.0503
     3.0505   3.0610   3.0610   3.0629   3.0652   3.0653   3.0688   3.0698
     3.0698   3.0747   3.0771   3.0772   3.0815   3.0816   3.0819   3.0826
     3.0834   3.0835   3.0845   3.0906   3.0907   3.0914   3.1018   3.1075
     3.1076   3.1104   3.1104   3.1112   3.1113   3.1118   3.1324   3.1324
     3.1368   3.1475   3.1475   3.1507   3.1524   3.1617   3.1617   3.1673
     3.1903   3.1904   3.2120   3.2146   3.2147   3.2162   3.2422   3.2472
     3.2473   3.2526   3.2582   3.2611   3.2611   3.2839   3.2839   3.2906
     3.2910   3.3251   3.3253   3.3473   3.3821   3.3827   3.3857   3.3857
     3.4047   3.4047   3.4601   3.7565   3.7569   3.7837   3.7845   3.7909
     3.8472   3.8473   3.8496   3.8777   3.9313   3.9397   3.9398   3.9702
     4.0161   4.0165   4.0992   4.1001   4.1100   4.1350   4.1379   4.1382
     4.1775   4.1781   4.1800   4.2509   4.2662   4.2664   4.2791   4.2792
     4.2888   4.3014   4.3313   4.3314   4.3353   4.3384   4.3385   4.3454
     4.3651   4.3653   4.4335   4.4724   4.4735   4.5931   4.5933   4.6180
     4.6384   4.6393   4.6395   4.6718   4.6765   4.6986   4.6987   4.7168
     4.7283   4.7283   4.7802   4.7802   4.7878   4.7918   4.8357   4.8358
     4.8640   4.8642   4.9313   4.9368   4.9372   4.9432   4.9601   4.9602
     4.9727   4.9729   4.9873   4.9899   5.0227   5.1433   5.1445   5.2953
     5.2958   5.3204   5.3340   5.3767   5.3770   5.3863   5.4133   5.4137
     5.4857   5.4859   5.4918   5.5061   5.5219   5.5220   5.5321   5.5468
     5.5473   5.5918   5.6015   5.6019   5.6157   5.6256   5.6280   5.6281
     5.6314   5.6315   5.6360   5.6612   5.7212   5.7215   5.7422   5.7761
     5.7763   5.8307   5.8308   5.8393   5.8431   5.8432   5.8511   5.8802
     5.8877   5.8880   5.9813   5.9822   5.9830   6.1365   6.1370   6.2030
     6.2036   6.2392   6.3007   6.3008   6.3227   6.3327   6.3432   6.3433
     6.3532   6.3721   6.3724   6.3795   6.3796   6.3806   6.4002   6.4005
     6.4006   6.4135   6.4151   6.4152   6.4189   6.4320   6.4384   6.4384
     6.4443   6.4489   6.4490   6.4619   6.4638   6.4639   6.5175   6.5176
     6.5176   6.5331   6.5502   6.5503   6.5705   6.5846   6.5847   6.6177
     6.6178   6.6316   6.6320   6.6369   6.6577   6.6615   6.6698   6.6699
     6.6844   6.6844   6.7114   6.7753   6.7755   6.7827   6.8046   6.8310
     6.8315   6.8892   6.8918   6.8927   6.9490   6.9839   6.9845   6.9913
     7.0084   7.0086   7.0091   7.0373   7.0376   7.0688   7.0748   7.0761
     7.0762   7.0801   7.1044   7.1046   7.1240   7.1241   7.1266   7.1366
     7.1379   7.1380   7.1464   7.1495   7.1573   7.1574   7.1612   7.1840
     7.1841   7.1923   7.2207   7.2210   7.2277   7.2374   7.2376   7.3060
     7.3113   7.3122   7.3123   7.3229   7.3260   7.3260   7.3378   7.3450
     7.3451   7.3518   7.3521   7.4151   7.4152   7.4500   7.4701   7.4701
     7.5256   7.5308   7.5534   7.5536   7.5657   7.5658   7.6008   7.6009
     7.6086   7.6090   7.6219   7.6220   7.6258   7.6274   7.6752   7.6754
     7.6754   7.6967   7.6970   7.7048   7.7245   7.7326   7.7328   7.7361
     7.7971   7.7983   7.7984   7.8074   7.8075   7.8792   7.8796   7.9252
     7.9255   7.9448   7.9682   7.9684   8.0118   8.0197   8.0198   8.0269
     8.1708   8.1709   8.2297   8.2298   8.3461   8.4492   8.4493   9.0692
    11.7719  13.1690  13.3342  13.5964  13.5976  14.0014  14.1256  14.1258
    14.1692  14.3081  14.3085  14.3514  14.8322  14.8323  14.8763  14.8766
    14.9158  14.9290  14.9710  15.0074

     occupation numbers 
     1.0000   1.0000   1.0000   1.0000   1.0000   1.0000   1.0000   1.0000
     1.0000   1.0000   1.0000   1.0000   1.0000   1.0000   1.0000   1.0000
     1.0000   1.0000   1.0000   1.0000   1.0000   1.0000   1.0000   1.0000
     1.0000   1.0000   1.0000   1.0000   1.0000   1.0000   1.0000   1.0000
     1.0000   1.0000   1.0000   1.0000   1.0000   1.0000   1.0000   1.0000
     1.0000   1.0000   1.0000   1.0000   1.0000   1.0000   1.0000   1.0000
     1.0000   1.0000   1.0000   1.0000   1.0000   1.0000   1.0000   1.0000
     1.0000   1.0000   1.0000   1.0000   1.0000   1.0000   1.0000   1.0000
     1.0000   1.0000   1.0000   1.0000   1.0000   1.0000   1.0000   1.0000
     1.0000   1.0000   1.0000   1.0000   1.0000   1.0000   1.0000   1.0000
     1.0000   1.0000   1.0000   1.0000   1.0000   1.0000   1.0000   1.0000
     1.0000   1.0000   1.0000   1.0000   1.0000   1.0000   1.0000   1.0000
     1.0000   1.0000   1.0000   1.0000   1.0000   1.0000   1.0000   1.0000
     1.0000   1.0000   1.0000   1.0000   1.0000   1.0000   1.0000   1.0000
     1.0000   1.0000   1.0000   1.0000   1.0000   1.0000   1.0000   1.0000
     1.0000   1.0000   1.0000   1.0000   1.0000   1.0000   1.0000   1.0000
     1.0000   1.0000   1.0000   1.0000   1.0000   1.0000   1.0000   1.0000
     1.0000   1.0000   1.0000   1.0000   1.0000   1.0000   1.0000   1.0000
     1.0000   1.0000   1.0000   1.0000   1.0000   1.0000   1.0000   1.0000
     1.0000   1.0000   1.0000   1.0000   1.0000   1.0000   1.0000   1.0000
     1.0000   1.0000   1.0000   1.0000   1.0000   1.0000   1.0000   1.0000
     1.0000   1.0000   1.0000   1.0000   1.0000   1.0000   1.0000   1.0000
     1.0000   1.0000   1.0000   1.0000   1.0000   1.0000   1.0000   1.0000
     1.0000   1.0000   1.0000   1.0000   1.0000   1.0000   1.0000   1.0000
     1.0000   1.0000   1.0000   1.0000   1.0000   1.0000   1.0000   1.0000
     1.0000   1.0000   1.0000   1.0000   1.0000   1.0000   1.0000   1.0000
     1.0000   1.0000   1.0000   1.0000   1.0000   1.0000   1.0000   1.0000
     1.0000   1.0000   1.0000   1.0000   1.0000   1.0000   1.0000   1.0000
     1.0000   1.0000   1.0000   1.0000   1.0000   1.0000   1.0000   1.0000
     1.0000   1.0000   1.0000   1.0000   1.0000   1.0000   1.0000   1.0000
     1.0000   1.0000   1.0000   1.0000   1.0000   1.0000   1.0000   1.0000
     1.0000   1.0000   1.0000   1.0000   1.0000   1.0000   1.0000   1.0000
     1.0000   1.0000   1.0000   1.0000   1.0000   1.0000   1.0000   1.0000
     1.0000   1.0000   1.0000   1.0000   1.0000   1.0000   1.0000   1.0000
     1.0000   1.0000   1.0000   1.0000   1.0000   1.0000   1.0000   1.0000
     1.0000   1.0000   1.0000   1.0000   1.0000   1.0000   1.0000   1.0000
     1.0000   1.0000   1.0000   1.0000   1.0000   1.0000   1.0000   1.0000
     1.0000   1.0000   1.0000   1.0000   1.0000   1.0000   1.0000   1.0000
     1.0000   1.0000   1.0000   1.0000   1.0000   1.0000   1.0000   1.0000
     1.0000   1.0000   1.0000   1.0000   1.0000   1.0000   1.0000   1.0000
     1.0000   1.0000   1.0000   1.0000   1.0000   1.0000   1.0000   1.0000
     1.0000   1.0000   1.0000   1.0000   1.0000   1.0000   1.0000   1.0000
     1.0000   1.0000   1.0000   1.0000   1.0000   1.0000   1.0000   1.0000
     1.0000   1.0000   1.0000   1.0000   1.0000   1.0000   1.0000   1.0000
     1.0000   1.0000   1.0000   1.0000   1.0000   1.0000   1.0000   1.0000
     1.0000   1.0000   1.0000   1.0000   1.0000   1.0000   1.0000   1.0000
     1.0000   1.0000   1.0000   1.0000   1.0000   1.0000   1.0000   1.0000
     1.0000   1.0000   1.0000   1.0000   1.0000   1.0000   1.0000   1.0000
     1.0000   1.0000   1.0000   1.0000   1.0000   1.0000   1.0000   1.0000
     1.0000   1.0000   1.0000   1.0000   1.0000   1.0000   1.0000   1.0000
     1.0000   1.0000   1.0000   1.0000   1.0000   1.0000   1.0000   1.0000
     1.0000   1.0000   1.0000   1.0000   1.0000   1.0000   1.0000   1.0000
     1.0000   1.0000   1.0000   1.0000   1.0000   1.0000   1.0000   1.0000
     1.0000   1.0000   1.0000   1.0000   1.0000   1.0000   1.0000   1.0000
     1.0000   1.0000   1.0000   1.0000   1.0000   1.0000   1.0000   1.0000
     1.0000   1.0000   1.0000   1.0000   1.0000   1.0000   1.0000   1.0000
     1.0000   1.0000   1.0000   1.0000   1.0000   1.0000   1.0000   1.0000
     1.0000   1.0000   1.0000   1.0000   1.0000   1.0000   1.0000   1.0000
     1.0000   1.0000   1.0000   1.0000   1.0000   1.0000   1.0000   1.0000
     1.0000   1.0000   1.0000   1.0000   1.0000   1.0000   1.0000   1.0000
     1.0000   1.0000   1.0000   1.0000   1.0000   1.0000   1.0000   1.0000
     1.0000   1.0000   1.0000   1.0000   1.0000   1.0000   1.0000   1.0000
     1.0000   1.0000   1.0000   1.0000   1.0000   1.0000   1.0000   1.0000
     1.0000   1.0000   1.0000   1.0000   1.0000   1.0000   1.0000   1.0000
     1.0000   1.0000   1.0000   1.0000   1.0000   1.0000   1.0000   1.0000
     1.0000   1.0000   1.0000   1.0000   1.0000   1.0000   1.0000   1.0000
     1.0000   1.0000   1.0000   1.0000   1.0000   1.0000   1.0000   1.0000
     1.0000   1.0000   1.0000   1.0000   1.0000   1.0000   1.0000   1.0000
     1.0000   1.0000   1.0000   1.0000   1.0000   1.0000   1.0000   1.0000
     1.0000   1.0000   1.0000   1.0000   1.0000   1.0000   1.0000   1.0000
     1.0000   1.0000   1.0000   1.0000   1.0000   1.0000   1.0000   1.0000
     1.0000   1.0000   1.0000   1.0000   1.0000   1.0000   1.0000   1.0000
     1.0000   1.0000   1.0000   1.0000   1.0000   1.0000   1.0000   1.0000
     1.0000   1.0000   1.0000   1.0000   1.0000   1.0000   1.0000   1.0000
     1.0000   1.0000   1.0000   1.0000   1.0000   1.0000   1.0000   1.0000
     1.0000   1.0000   1.0000   1.0000   1.0000   1.0000   1.0000   1.0000
     1.0000   1.0000   1.0000   1.0000   1.0000   1.0000   1.0000   1.0000
     1.0000   1.0000   1.0000   1.0000   1.0000   1.0000   1.0000   1.0000
     1.0000   1.0000   1.0000   1.0000   1.0000   1.0000   1.0000   1.0000
     1.0000   1.0000   1.0000   1.0000   1.0000   1.0000   1.0000   1.0000
     1.0000   1.0000   1.0000   1.0000   1.0000   1.0000   1.0000   1.0000
     1.0000   1.0000   1.0000   1.0000   1.0000   1.0000   1.0000   1.0000
     1.0000   1.0000   1.0000   1.0000   1.0000   1.0000   1.0000   1.0000
     1.0000   1.0000   1.0000   1.0000   1.0000   1.0000   1.0000   1.0000
     1.0000   1.0000   1.0000   1.0000   1.0000   1.0000   1.0000   1.0000
     1.0000   1.0000   1.0000   1.0000   1.0000   1.0000   1.0000   1.0000
     1.0000   1.0000   1.0000   1.0000   1.0000   1.0000   1.0000   1.0000
     1.0000   1.0000   1.0000   1.0000   1.0000   1.0000   1.0000   1.0000
     1.0000   1.0000   1.0000   1.0000   1.0000   1.0000   1.0000   1.0000
     1.0000   1.0000   1.0000   1.0000   1.0000   1.0000   1.0000   1.0000
     1.0000   1.0000   1.0000   1.0000   1.0000   1.0000   1.0000   1.0000
     1.0000   1.0000   1.0000   1.0000   1.0000   1.0000   1.0000   1.0000
     1.0000   1.0000   1.0000   1.0000   1.0000   1.0000   1.0000   1.0000
     1.0000   1.0000   1.0000   1.0000   1.0000   1.0000   1.0000   1.0000
     1.0000   1.0000   1.0000   1.0000   1.0000   1.0000   1.0000   1.0000
     1.0000   1.0000   1.0000   1.0000   1.0000   1.0000   1.0000   1.0000
     1.0000   1.0000   1.0000   1.0000   1.0000   1.0000   1.0000   1.0000
     1.0000   1.0000   1.0000   1.0000   1.0000   1.0000   1.0000   1.0000
     1.0000   1.0000   1.0000   1.0000   1.0000   1.0000   1.0000   1.0000
     1.0000   1.0000   1.0000   1.0000   1.0000   1.0000   1.0000   1.0000
     1.0000   1.0000   1.0000   1.0000   1.0000   1.0000   1.0000   1.0000
     1.0000   1.0000   1.0000   1.0000   1.0000   1.0000   1.0000   1.0000
     1.0000   1.0000   1.0000   1.0000   1.0000   1.0000   1.0000   1.0000
     1.0000   1.0000   1.0000   1.0000   1.0000   1.0000   1.0000   1.0000
     1.0000   1.0000   1.0000   1.0000   1.0000   1.0000   1.0000   1.0000
     1.0000   1.0000   1.0000   1.0000   1.0000   1.0000   1.0000   1.0000
     1.0000   1.0000   1.0000   1.0000   1.0000   1.0000   1.0000   1.0000
     1.0000   1.0000   1.0000   1.0000   1.0000   1.0000   1.0000   1.0000
     1.0000   1.0000   1.0000   1.0000   1.0000   1.0000   1.0000   1.0000
     1.0000   1.0000   1.0000   1.0000   1.0000   1.0000   1.0000   1.0000
     1.0000   1.0000   1.0000   1.0000   1.0000   1.0000   1.0000   1.0000
     1.0000   1.0000   1.0000   1.0000   1.0000   1.0000   1.0000   1.0000
     1.0000   1.0000   1.0000   1.0000   1.0000   1.0000   1.0000   1.0000
     1.0000   1.0000   1.0000   1.0000   1.0000   1.0000   1.0000   1.0000
     1.0000   1.0000   1.0000   1.0000   1.0000   1.0000   1.0000   1.0000
     1.0000   1.0000   1.0000   1.0000   1.0000   1.0000   1.0000   1.0000
     1.0000   1.0000   1.0000   1.0000   1.0000   1.0000   1.0000   1.0000
     1.0000   1.0000   1.0000   1.0000   1.0000   1.0000   1.0000   1.0000
     1.0000   1.0000   1.0000   1.0000   1.0000   1.0000   1.0000   1.0000
     1.0000   1.0000   1.0000   1.0000   1.0000   1.0000   1.0000   1.0000
     1.0000   1.0000   1.0000   1.0000   1.0000   1.0000   1.0000   1.0000
     1.0000   1.0000   1.0000   1.0000   1.0000   1.0000   1.0000   1.0000
     1.0000   1.0000   1.0000   1.0000   1.0000   1.0000   1.0000   1.0000
     1.0000   1.0000   1.0000   1.0000   1.0000   1.0000   1.0000   1.0000
     1.0000   1.0000   1.0000   1.0000   1.0000   1.0000   1.0000   1.0000
     1.0000   1.0000   1.0000   1.0000   1.0000   1.0000   1.0000   1.0000
     1.0000   1.0000   1.0000   1.0000   1.0000   1.0000   1.0000   1.0000
     1.0000   1.0000   1.0000   1.0000   1.0000   1.0000   1.0000   1.0000
     1.0000   1.0000   1.0000   1.0000   1.0000   1.0000   1.0000   1.0000
     1.0000   1.0000   1.0000   1.0000   1.0000   1.0000   1.0000   1.0000
     1.0000   1.0000   1.0000   1.0000   1.0000   1.0000   1.0000   1.0000
     1.0000   1.0000   1.0000   1.0000   1.0000   1.0000   1.0000   1.0000
     1.0000   1.0000   1.0000   1.0000   1.0000   1.0000   1.0000   1.0000
     1.0000   1.0000   1.0000   1.0000   1.0000   1.0000   1.0000   1.0000
     1.0000   1.0000   1.0000   1.0000   1.0000   1.0000   1.0000   1.0000
     1.0000   1.0000   1.0000   1.0000   1.0000   1.0000   1.0000   1.0000
     1.0000   1.0000   1.0000   1.0000   1.0000   1.0000   1.0000   1.0000
     1.0000   1.0000   1.0000   1.0000   1.0000   1.0000   1.0000   1.0000
     1.0000   1.0000   1.0000   1.0000   1.0000   1.0000   1.0000   1.0000
     1.0000   1.0000   1.0000   1.0000   1.0000   1.0000   1.0000   1.0000
     1.0000   1.0000   1.0000   1.0000   1.0000   1.0000   1.0000   1.0000
     1.0000   1.0000   1.0000   1.0000   1.0000   1.0000   1.0000   1.0000
     1.0000   1.0000   1.0000   1.0000   1.0000   1.0000   1.0000   1.0000
     1.0000   1.0000   1.0000   1.0000   1.0000   1.0000   1.0000   1.0000
     1.0000   1.0000   1.0000   1.0000   1.0000   1.0000   1.0000   1.0000
     1.0000   1.0000   1.0000   1.0000   1.0000   1.0000   1.0000   1.0000
     1.0000   1.0000   1.0000   1.0000   1.0000   1.0000   1.0000   1.0000
     1.0000   1.0000   1.0000   1.0000   1.0000   1.0000   1.0000   1.0000
     1.0000   1.0000   1.0000   1.0000   1.0000   1.0000   1.0000   1.0000
     1.0000   1.0000   1.0000   1.0000   1.0000   1.0000   1.0000   1.0000
     1.0000   1.0000   1.0000   1.0000   1.0000   1.0000   1.0000   1.0000
     1.0000   1.0000   1.0000   1.0000   1.0000   1.0000   1.0000   1.0000
     1.0000   1.0000   1.0000   1.0000   1.0000   1.0000   1.0000   1.0000
     1.0000   1.0000   1.0000   1.0000   1.0000   1.0000   1.0000   1.0000
     1.0000   1.0000   1.0000   1.0000   1.0000   1.0000   1.0000   1.0000
     0.0000   0.0000   0.0000   0.0000   0.0000   0.0000   0.0000   0.0000
     0.0000   0.0000   0.0000   0.0000   0.0000   0.0000   0.0000   0.0000
     0.0000   0.0000   0.0000   0.0000

     the Fermi energy is    10.7550 ev

!    total energy              =  -41216.55575172 Ry
     estimated scf accuracy    <          3.5E-10 Ry
     smearing contrib. (-TS)   =      -0.00000000 Ry
     internal energy E=F+TS    =  -41216.55575172 Ry

     total magnetization       =     2.00 Bohr mag/cell
     absolute magnetization    =     2.34 Bohr mag/cell

     convergence has been achieved in   1 iterations

     Using ACE for calculation of exact exchange
     ACE projected onto  1260 (nbndproj) and applied to  1260 (nbnd) bands

!!   total energy              =  -41216.55575172 Ry
     Harris-Foulkes estimate   =  -41216.55575172 Ry
     est. exchange err (dexx)  =          7.6E-10 Ry
     - averaged Fock potential =    1964.92449921 Ry
     + Fock energy (ACE)       =    -982.46224951 Ry

     EXX self-consistency reached

     Writing all to output data dir temp/pwscf.save/
 
     init_run     :      5.38s CPU      6.08s WALL (       1 calls)
     electrons    :   2863.88s CPU   2929.48s WALL (      32 calls)

     Called by init_run:
     aceinit0     :      0.00s CPU      0.00s WALL (       1 calls)
     wfcinit      :      3.44s CPU      3.78s WALL (       1 calls)
     wfcinit:atom :      0.05s CPU      0.06s WALL (       1 calls)
     wfcinit:wfcr :      2.93s CPU      3.18s WALL (       1 calls)
     potinit      :      0.69s CPU      0.77s WALL (       1 calls)
     hinit0       :      1.08s CPU      1.17s WALL (       1 calls)

     Called by electrons:
     c_bands      :   2818.41s CPU   2880.30s WALL (      94 calls)
     sum_band     :     28.62s CPU     29.28s WALL (      94 calls)
     v_of_rho     :     12.38s CPU     12.64s WALL (      95 calls)
     v_h          :      0.49s CPU      0.51s WALL (      95 calls)
     v_xc         :     11.88s CPU     12.09s WALL (      95 calls)
     mix_rho      :      1.09s CPU      1.45s WALL (      94 calls)

     Called by c_bands:
     init_us_2    :      8.02s CPU      8.11s WALL (     189 calls)
     init_us_2:cp :      8.02s CPU      8.10s WALL (     189 calls)
     regterg      :   2639.96s CPU   2700.96s WALL (      94 calls)

     Called by sum_band:
     sum_band:wei :      0.15s CPU      0.21s WALL (      94 calls)
     sum_band:loo :     25.17s CPU     25.42s WALL (      94 calls)
     sum_band:buf :      0.00s CPU      0.00s WALL (      94 calls)
     sum_band:ini :      3.99s CPU      4.04s WALL (      94 calls)

     Called by *egterg:
     rdiaghg      :   1419.46s CPU   1424.25s WALL (     508 calls)
     regterg:over :     93.36s CPU    100.34s WALL (     446 calls)
     regterg:upda :     48.94s CPU     56.22s WALL (     446 calls)
     regterg:last :    108.18s CPU    125.61s WALL (     204 calls)
     h_psi        :    764.17s CPU    771.55s WALL (     541 calls)
     g_psi        :      2.01s CPU      2.02s WALL (     446 calls)

     Called by h_psi:
     h_psi:calbec :    132.82s CPU    133.30s WALL (     541 calls)
     vloc_psi     :    291.14s CPU    293.39s WALL (     541 calls)
     add_vuspsi   :    133.51s CPU    134.16s WALL (     541 calls)

     General routines
     calbec       :    256.53s CPU    257.42s WALL (    1153 calls)
     fft          :      3.97s CPU      4.04s WALL (    1357 calls)
     ffts         :      0.57s CPU      0.59s WALL (     188 calls)
     fftw         :    253.43s CPU    255.43s WALL (  282734 calls)
     fftc         :   6517.81s CPU   6565.62s WALL (12559680 calls)
     fftcw        :     16.47s CPU     16.65s WALL (   35360 calls)
 
     Parallel routines

     EXX routines
     exx_grid     :      0.00s CPU      0.03s WALL (       1 calls)
     exxinit      :     48.23s CPU     51.29s WALL (      32 calls)
     vexx         :  10361.81s CPU  10454.76s WALL (      32 calls)
     matcalc      :    124.86s CPU    125.31s WALL (     612 calls)
     aceupdate    :     11.33s CPU     12.27s WALL (      32 calls)
     vexxace      :    278.31s CPU    283.76s WALL (     517 calls)
     aceinit      :  10384.77s CPU  10478.80s WALL (      32 calls)
 
     PWSCF        :      3h44m CPU      3h47m WALL

 
   This run was terminated on:  17:58:49  27Jan2025            

=------------------------------------------------------------------------------=
   JOB DONE.
=------------------------------------------------------------------------------=
