
     Program PWSCF v.7.2 starts on 14Dec2023 at  9:29: 4 

     This program is part of the open-source Quantum ESPRESSO suite
     for quantum simulation of materials; please cite
         "P. Giannozzi et al., J. Phys.:Condens. Matter 21 395502 (2009);
         "P. Giannozzi et al., J. Phys.:Condens. Matter 29 465901 (2017);
         "P. Giannozzi et al., J. Chem. Phys. 152 154105 (2020);
          URL http://www.quantum-espresso.org", 
     in publications or presentations arising from this work. More details at
     http://www.quantum-espresso.org/quote

     Parallel version (MPI), running on   128 processors

     MPI processes distributed on     8 nodes
     181909 MiB available memory on the printing compute node when the environment starts
 
     Reading input from nscf.in
Warning: card &IONS ignored
Warning: card / ignored
Warning: card &CELL ignored
Warning: card / ignored

     Current dimensions of program PWSCF are:
     Max number of different atomic species (ntypx) = 10
     Max number of k-points (npk) =  40000
     Max angular momentum in pseudopotentials (lmaxx) =  4

     Atomic positions and unit cell read from directory:
     temp/pwscf.save/
     Atomic positions from file used, from input discarded
 

     IMPORTANT: XC functional enforced from input :
     Exchange-correlation= HSE
                           (   1   4  12   4   0   0   0)
     EXX-fraction              =        0.25
     Any further DFT definition will be discarded
     Please, verify this is what you really want

     EXX fraction changed:   0.38
     EXX Screening parameter changed:    0.2000000

     gamma-point specific algorithms are used
 
     band groups division:  nbgrp     =       8
     R & G space division:  proc/nbgrp/npool/nimage =      16
     Subspace diagonalization in iterative solution of the eigenvalue problem:
     a serial algorithm will be used

     EXX: q-point mesh:     1    1    1
     EXX: grid of k+q points same as grid of k-points
 
     Parallelization info
     --------------------
     sticks:   dense  smooth     PW     G-vecs:    dense   smooth      PW
     Min         828     828    206                93060    93060   11626
     Max         831     831    208                93070    93070   11636
     Sum       13273   13273   3319              1489031  1489031  186077
 
     Using Slab Decomposition
 


     bravais-lattice index     =            0
     lattice parameter (alat)  =      24.5558  a.u.
     unit-cell volume          =   15406.2245 (a.u.)^3
     number of atoms/cell      =          191
     number of atomic types    =            4
     number of electrons       =      2482.00
     number of Kohn-Sham states=         3000
     kinetic-energy cutoff     =      80.0000  Ry
     charge density cutoff     =     320.0000  Ry
     cutoff for Fock operator  =     160.0000  Ry
     Exchange-correlation= HSE
                           (   1   4  12   4   0   0   0)
     EXX-fraction              =        0.38

     celldm(1)=  24.555771  celldm(2)=   0.000000  celldm(3)=   0.000000
     celldm(4)=   0.000000  celldm(5)=   0.000000  celldm(6)=   0.000000

     crystal axes: (cart. coord. in units of alat)
               a(1) = (   1.000000   0.000000   0.000000 )  
               a(2) = (  -0.500000   0.866025   0.000000 )  
               a(3) = (   0.000000   0.000000   1.201448 )  

     reciprocal axes: (cart. coord. in units 2 pi/alat)
               b(1) = (  1.000000  0.577350  0.000000 )  
               b(2) = (  0.000000  1.154701  0.000000 )  
               b(3) = (  0.000000  0.000000  0.832329 )  


     PseudoPot. # 1 for Zn read from file:
     ~/Pseudopotential/pseudo-ONCV-proj/Zn_ONCV_PBE-1.0.upf
     MD5 check sum: Not computed, couldn't open file
     Pseudo is Norm-conserving, Zval = 20.0
     Generated using ONCVPSP code by D. R. Hamann
     Using radial grid of 1326 points,  6 beta functions with: 
                l(1) =   0
                l(2) =   0
                l(3) =   1
                l(4) =   1
                l(5) =   2
                l(6) =   2

     PseudoPot. # 2 for Zn read from file:
     ~/Pseudopotential/pseudo-ONCV-proj/Zn_ONCV_PBE-1.0.upf
     MD5 check sum: Not computed, couldn't open file
     Pseudo is Norm-conserving, Zval = 20.0
     Generated using ONCVPSP code by D. R. Hamann
     Using radial grid of 1326 points,  6 beta functions with: 
                l(1) =   0
                l(2) =   0
                l(3) =   1
                l(4) =   1
                l(5) =   2
                l(6) =   2

     PseudoPot. # 3 for O  read from file:
     ~/Pseudopotential/pseudo-ONCV-proj/O_ONCV_PBE-1.0.upf
     MD5 check sum: Not computed, couldn't open file
     Pseudo is Norm-conserving, Zval =  6.0
     Generated using ONCVPSP code by D. R. Hamann
     Using radial grid of  936 points,  4 beta functions with: 
                l(1) =   0
                l(2) =   0
                l(3) =   1
                l(4) =   1

     PseudoPot. # 4 for V  read from file:
     ~/Pseudopotential/pseudo-ONCV-proj/V_ONCV_PBE-1.0.upf
     MD5 check sum: Not computed, couldn't open file
     Pseudo is Norm-conserving, Zval = 13.0
     Generated using ONCVPSP code by D. R. Hamann
     Using radial grid of 1536 points,  6 beta functions with: 
                l(1) =   0
                l(2) =   0
                l(3) =   1
                l(4) =   1
                l(5) =   2
                l(6) =   2

     atomic species   valence    mass     pseudopotential
        Zn1           20.00    65.39000     Zn( 1.00)
        Zn            20.00    65.39000     Zn( 1.00)
        O              6.00    15.99940     O ( 1.00)
        V             13.00    50.94150     V ( 1.00)

     Starting magnetic structure 
     atomic species   magnetization
        Zn1          0.500
        Zn           0.000
        O            0.000
        V            1.000

     No symmetry found


                                    s                        frac. trans.

      isym =  1     identity                                     

 cryst.   s( 1) = (     1          0          0      )
                  (     0          1          0      )
                  (     0          0          1      )

 cart.    s( 1) = (  1.0000000  0.0000000  0.0000000 )
                  (  0.0000000  1.0000000  0.0000000 )
                  (  0.0000000  0.0000000  1.0000000 )


   Cartesian axes

     site n.     atom                  positions (alat units)
         1           Zn  tau(   1) = (   0.1249598   0.0721920   0.1997491  )
         2           Zn  tau(   2) = (   0.1251072   0.0721069   0.6010524  )
         3           Zn  tau(   3) = (   0.1250220   0.0721561   1.0012843  )
         4           Zn  tau(   4) = (  -0.0001729   0.2885682   0.1999057  )
         5           Zn  tau(   5) = (  -0.0003507   0.2884672   0.6008527  )
         6           Zn  tau(   6) = (  -0.0000192   0.2886545   1.0015519  )
         7           Zn  tau(   7) = (  -0.1250000   0.5051233   0.1997484  )
         8           Zn  tau(   8) = (  -0.1249961   0.5053053   0.6010590  )
         9           Zn  tau(   9) = (  -0.1250010   0.5052046   1.0012925  )
        10           Zn  tau(  10) = (  -0.2499629   0.7217054   0.1997172  )
        11           Zn  tau(  11) = (  -0.2495779   0.7219327   0.6011344  )
        12           Zn  tau(  12) = (  -0.2499827   0.7217011   1.0014838  )
        13           Zn  tau(  13) = (   0.3750033   0.0721278   0.1997172  )
        14           Zn  tau(  14) = (   0.3749990   0.0716808   0.6011344  )
        15           Zn  tau(  15) = (   0.3749971   0.0721472   1.0014838  )
        16           Zn  tau(  16) = (   0.2495190   0.2883045   0.2000878  )
        17           Zn  tau(  17) = (   0.2475081   0.2867699   0.6026895  )
        18           Zn  tau(  18) = (   0.2507995   0.2892075   1.0007446  )
        19           Zn  tau(  19) = (   0.1244275   0.5049532   0.2000820  )
        20           Zn  tau(  20) = (   0.1220156   0.5039866   0.6026879  )
        21           Zn  tau(  21) = (   0.1258314   0.5056217   1.0007725  )
        22           Zn  tau(  22) = (  -0.0000450   0.7217138   0.1997144  )
        23           Zn  tau(  23) = (  -0.0004786   0.7219641   0.6011415  )
        24           Zn  tau(  24) = (  -0.0000515   0.7217175   1.0014996  )
        25           Zn  tau(  25) = (   0.6250503   0.0721978   0.1997484  )
        26           Zn  tau(  26) = (   0.6248947   0.0721035   0.6010590  )
        27           Zn  tau(  27) = (   0.6249795   0.0721581   1.0012925  )
        28           Zn  tau(  28) = (   0.5004931   0.2883000   0.2000812  )
        29           Zn  tau(  29) = (   0.5025970   0.2867130   0.6027003  )
        30           Zn  tau(  30) = (   0.4992335   0.2891858   1.0007678  )
        31           Zn  tau(  31) = (   0.3749990   0.5051821   0.2007026  )
        32           Zn  tau(  32) = (   0.3749843   0.5051905   1.0032425  )
        33           Zn  tau(  33) = (   0.2499114   0.7222977   0.2000820  )
        34           Zn  tau(  34) = (   0.2495426   0.7248698   0.6026879  )
        35           Zn  tau(  35) = (   0.2500345   0.7207476   1.0007725  )
        36           Zn  tau(  36) = (   0.8750061   0.0723719   0.1999057  )
        37           Zn  tau(  37) = (   0.8750047   0.0725765   0.6008527  )
        38           Zn  tau(  38) = (   0.8750083   0.0721958   1.0015519  )
        39           Zn  tau(  39) = (   0.7501905   0.2885651   0.1999056  )
        40           Zn  tau(  40) = (   0.7503777   0.2884571   0.6008518  )
        41           Zn  tau(  41) = (   0.7500567   0.2886424   1.0015718  )
        42           Zn  tau(  42) = (   0.6255714   0.5049420   0.2000812  )
        43           Zn  tau(  43) = (   0.6279978   0.5039134   0.6027003  )
        44           Zn  tau(  44) = (   0.6241745   0.5055899   1.0007678  )
        45           Zn  tau(  45) = (   0.5000805   0.7222897   0.2000878  )
        46           Zn  tau(  46) = (   0.5004040   0.7247984   0.6026895  )
        47           Zn  tau(  47) = (   0.4999388   0.7207292   1.0007446  )
        48           Zn  tau(  48) = (   0.0000153   0.1443287   0.0000590  )
        49           Zn  tau(  49) = (  -0.0000348   0.1443577   0.4001999  )
        50           Zn  tau(  50) = (   0.0001146   0.1442714   0.8013188  )
        51           Zn  tau(  51) = (  -0.1249917   0.3608563   0.0000686  )
        52           Zn  tau(  52) = (  -0.1249957   0.3608089   0.4001961  )
        53           Zn  tau(  53) = (  -0.1249788   0.3610031   0.8013357  )
        54           Zn  tau(  54) = (  -0.2500693   0.5772852   1.2011955  )
        55           Zn  tau(  55) = (  -0.2492986   0.5776540   0.3999219  )
        56           Zn  tau(  56) = (  -0.2511295   0.5774087   0.8016786  )
        57           Zn  tau(  57) = (  -0.3750888   0.7938202   1.2011845  )
        58           Zn  tau(  58) = (  -0.3743860   0.7943202   0.3999299  )
        59           Zn  tau(  59) = (  -0.3755720   0.7928251   0.8016557  )
        60           Zn  tau(  60) = (   0.2499871   0.1444327   1.2011845  )
        61           Zn  tau(  61) = (   0.2499055   0.1435740   0.3999299  )
        62           Zn  tau(  62) = (   0.2506073   0.1453486   0.8016557  )
        63           Zn  tau(  63) = (   0.1250656   0.3608861   1.2011424  )
        64           Zn  tau(  64) = (   0.1242860   0.3604436   0.4001467  )
        65           Zn  tau(  65) = (   0.1252368   0.3610221   0.8023302  )
        66           Zn  tau(  66) = (   0.0000654   0.5772939   1.2011989  )
        67           Zn  tau(  67) = (  -0.0007173   0.5776686   0.3999174  )
        68           Zn  tau(  68) = (   0.0011106   0.5774519   0.8016823  )
        69           Zn  tau(  69) = (  -0.1250093   0.7938620   0.0000546  )
        70           Zn  tau(  70) = (  -0.1250152   0.7938654   0.3997695  )
        71           Zn  tau(  71) = (  -0.1250510   0.7938860   0.8013474  )
        72           Zn  tau(  72) = (   0.5000217   0.1444301   1.2011955  )
        73           Zn  tau(  73) = (   0.5000877   0.1435783   0.3999219  )
        74           Zn  tau(  74) = (   0.4993846   0.1452865   0.8016786  )
        75           Zn  tau(  75) = (   0.3750105   0.3606321   0.0009825  )
        76           Zn  tau(  76) = (   0.3750143   0.3593138   0.3973694  )
        77           Zn  tau(  77) = (   0.3750723   0.3716591   0.7983075  )
        78           Zn  tau(  78) = (   0.2498184   0.5774551   0.0009906  )
        79           Zn  tau(  79) = (   0.2486623   0.5781226   0.3973587  )
        80           Zn  tau(  80) = (   0.2593413   0.5719570   0.7983260  )
        81           Zn  tau(  81) = (   0.1250815   0.7938281   1.2011989  )
        82           Zn  tau(  82) = (   0.1243657   0.7943186   0.3999174  )
        83           Zn  tau(  83) = (   0.1254673   0.7928439   0.8016823  )
        84           Zn  tau(  84) = (   0.7499934   0.1443242   0.0000686  )
        85           Zn  tau(  85) = (   0.7500325   0.1443514   0.4001961  )
        86           Zn  tau(  86) = (   0.7498727   0.1442396   0.8013357  )
        87           Zn  tau(  87) = (   0.6249130   0.3608941   1.2011410  )
        88           Zn  tau(  88) = (   0.6257281   0.3604236   0.4001413  )
        89           Zn  tau(  89) = (   0.6248568   0.3609266   0.8023595  )
        90           Zn  tau(  90) = (   0.5001887   0.5774471   0.0009825  )
        91           Zn  tau(  91) = (   0.5013322   0.5781029   0.3973694  )
        92           Zn  tau(  92) = (   0.4906699   0.5718801   0.7983075  )
        93           Zn  tau(  93) = (   0.3749963   0.7937787   1.2011424  )
        94           Zn  tau(  94) = (   0.3749897   0.7946750   0.4001467  )
        95           Zn  tau(  95) = (   0.3749641   0.7935624   0.8023302  )
        96           O   tau(  96) = (   0.1249450   0.0722005   0.3529498  )
        97           O   tau(  97) = (   0.1254531   0.0719072   0.7534945  )
        98           O   tau(  98) = (   0.1250091   0.0721635   1.1539562  )
        99           O   tau(  99) = (  -0.0000162   0.2886569   0.3530410  )
       100           O   tau( 100) = (   0.0006286   0.2890371   0.7532614  )
       101           O   tau( 101) = (   0.0000797   0.2887110   1.1541353  )
       102           O   tau( 102) = (  -0.1249974   0.5051035   0.3529424  )
       103           O   tau( 103) = (  -0.1249853   0.5057154   0.7534963  )
       104           O   tau( 104) = (  -0.1249930   0.5051767   1.1539636  )
       105           O   tau( 105) = (  -0.2500643   0.7216495   0.3528977  )
       106           O   tau( 106) = (  -0.2502751   0.7215347   0.7532597  )
       107           O   tau( 107) = (  -0.2500294   0.7216671   1.1540586  )
       108           O   tau( 108) = (   0.3750010   0.0722436   0.3528977  )
       109           O   tau( 109) = (   0.3749950   0.0724836   0.7532597  )
       110           O   tau( 110) = (   0.3750032   0.0722046   1.1540586  )
       111           O   tau( 111) = (   0.2500362   0.2887008   0.3539667  )
       112           O   tau( 112) = (   0.2523309   0.2914073   0.7538649  )
       113           O   tau( 113) = (   0.2504243   0.2889944   1.1536158  )
       114           O   tau( 114) = (   0.1250246   0.5052020   0.3539600  )
       115           O   tau( 115) = (   0.1284252   0.5059162   0.7538637  )
       116           O   tau( 116) = (   0.1254813   0.5053948   1.1536352  )
       117           O   tau( 117) = (   0.0000491   0.7216594   0.3528920  )
       118           O   tau( 118) = (   0.0002028   0.7215707   0.7532623  )
       119           O   tau( 119) = (   0.0000305   0.7216702   1.1540697  )
       120           O   tau( 120) = (   0.6250687   0.0722055   0.3529424  )
       121           O   tau( 121) = (   0.6245450   0.0718891   0.7534963  )
       122           O   tau( 122) = (   0.6250076   0.0721651   1.1539636  )
       123           O   tau( 123) = (   0.4999888   0.2886873   0.3539558  )
       124           O   tau( 124) = (   0.4977896   0.2913204   0.7538743  )
       125           O   tau( 125) = (   0.4995986   0.2889789   1.1536332  )
       126           O   tau( 126) = (   0.3749959   0.5051838   0.3564423  )
       127           O   tau( 127) = (   0.3750063   0.5051778   1.1550981  )
       128           O   tau( 128) = (   0.2499946   0.7216562   0.3539600  )
       129           O   tau( 129) = (   0.2510763   0.7183541   0.7538637  )
       130           O   tau( 130) = (   0.2500559   0.7211643   1.1536352  )
       131           O   tau( 131) = (   0.8750077   0.0721919   0.3530410  )
       132           O   tau( 132) = (   0.8750008   0.0714434   0.7532614  )
       133           O   tau( 133) = (   0.8750088   0.0720818   1.1541353  )
       134           O   tau( 134) = (   0.7500485   0.2886471   0.3530360  )
       135           O   tau( 135) = (   0.7494730   0.2889794   0.7532587  )
       136           O   tau( 136) = (   0.7499532   0.2887021   1.1541411  )
       137           O   tau( 137) = (   0.6249838   0.5051851   0.3539558  )
       138           O   tau( 138) = (   0.6216040   0.5057731   0.7538743  )
       139           O   tau( 139) = (   0.6245363   0.5053772   1.1536332  )
       140           O   tau( 140) = (   0.4999959   0.7216436   0.3539667  )
       141           O   tau( 141) = (   0.4987993   0.7183031   0.7538649  )
       142           O   tau( 142) = (   0.4999357   0.7211607   1.1536158  )
       143           O   tau( 143) = (   0.0000093   0.1443322   0.1529244  )
       144           O   tau( 144) = (   0.0002422   0.1441977   0.5531531  )
       145           O   tau( 145) = (  -0.0000259   0.1443525   0.9535831  )
       146           O   tau( 146) = (  -0.1249970   0.3608549   0.1529300  )
       147           O   tau( 147) = (  -0.1249789   0.3611467   0.5531460  )
       148           O   tau( 148) = (  -0.1249925   0.3608271   0.9535920  )
       149           O   tau( 149) = (  -0.2501149   0.5772620   0.1528659  )
       150           O   tau( 150) = (  -0.2507158   0.5774084   0.5530766  )
       151           O   tau( 151) = (  -0.2503418   0.5772481   0.9537245  )
       152           O   tau( 152) = (  -0.3751407   0.7938044   0.1528607  )
       153           O   tau( 153) = (  -0.3753405   0.7931900   0.5530875  )
       154           O   tau( 154) = (  -0.3752714   0.7936078   0.9537100  )
       155           O   tau( 155) = (   0.2499748   0.1444855   0.1528607  )
       156           O   tau( 156) = (   0.2504070   0.1449658   0.5530875  )
       157           O   tau( 157) = (   0.2500797   0.1446970   0.9537100  )
       158           O   tau( 158) = (   0.1250808   0.3608984   0.1530124  )
       159           O   tau( 159) = (   0.1257090   0.3612849   0.5532848  )
       160           O   tau( 160) = (   0.1251271   0.3609382   0.9540348  )
       161           O   tau( 161) = (   0.0001019   0.5772677   0.1528661  )
       162           O   tau( 162) = (   0.0006933   0.5774478   0.5530727  )
       163           O   tau( 163) = (   0.0003168   0.5772726   0.9537287  )
       164           O   tau( 164) = (  -0.1250119   0.7938635   0.1529230  )
       165           O   tau( 165) = (  -0.1250375   0.7938783   0.5526887  )
       166           O   tau( 166) = (  -0.1250214   0.7938689   0.9536426  )
       167           O   tau( 167) = (   0.5000190   0.1444812   0.1528659  )
       168           O   tau( 168) = (   0.4995918   0.1449284   0.5530766  )
       169           O   tau( 169) = (   0.4999176   0.1446846   0.9537245  )
       170           O   tau( 170) = (   0.3749972   0.3610011   0.1544092  )
       171           O   tau( 171) = (   0.3750781   0.3664330   0.5562423  )
       172           O   tau( 172) = (   0.3750284   0.3625233   0.9505914  )
       173           O   tau( 173) = (   0.2501249   0.5772781   0.1544112  )
       174           O   tau( 174) = (   0.2547224   0.5746238   0.5562252  )
       175           O   tau( 175) = (   0.2514109   0.5765357   0.9505993  )
       176           O   tau( 176) = (   0.1251225   0.7938097   0.1528661  )
       177           O   tau( 177) = (   0.1252622   0.7932074   0.5530727  )
       178           O   tau( 178) = (   0.1252256   0.7936210   0.9537287  )
       179           O   tau( 179) = (   0.7499920   0.1443295   0.1529300  )
       180           O   tau( 180) = (   0.7497484   0.1441679   0.5531460  )
       181           O   tau( 181) = (   0.7500183   0.1443394   0.9535920  )
       182           O   tau( 182) = (   0.6249234   0.3608881   0.1530167  )
       183           O   tau( 183) = (   0.6243568   0.3612152   0.5532676  )
       184           O   tau( 184) = (   0.6249006   0.3609013   0.9540455  )
       185           O   tau( 185) = (   0.4998624   0.5772741   0.1544092  )
       186           O   tau( 186) = (   0.4951988   0.5744880   0.5562423  )
       187           O   tau( 187) = (   0.4985598   0.5764859   0.9505914  )
       188           O   tau( 188) = (   0.3749933   0.7937593   0.1530124  )
       189           O   tau( 189) = (   0.3749726   0.7930220   0.5532848  )
       190           O   tau( 190) = (   0.3749819   0.7936993   0.9540348  )
       191           V   tau( 191) = (   0.3750075   0.5051771   0.5968715  )

   Crystallographic axes

     site n.     atom                  positions (cryst. coord.)
         1           Zn  tau(   1) = (  0.1666399  0.0833601  0.1662570  )
         2           Zn  tau(   2) = (  0.1667381  0.0832619  0.5002734  )
         3           Zn  tau(   3) = (  0.1666813  0.0833187  0.8333981  )
         4           Zn  tau(   4) = (  0.1664321  0.3332099  0.1663873  )
         5           Zn  tau(   5) = (  0.1661959  0.3330932  0.5001072  )
         6           Zn  tau(   6) = (  0.1666355  0.3333095  0.8336208  )
         7           Zn  tau(   7) = (  0.1666331  0.5832662  0.1662564  )
         8           Zn  tau(   8) = (  0.1667421  0.5834764  0.5002789  )
         9           Zn  tau(   9) = (  0.1666790  0.5833600  0.8334049  )
        10           Zn  tau(  10) = (  0.1667140  0.8333537  0.1662304  )
        11           Zn  tau(  11) = (  0.1672301  0.8336161  0.5003417  )
        12           Zn  tau(  12) = (  0.1666916  0.8333488  0.8335641  )
        13           Zn  tau(  13) = (  0.4166463  0.0832860  0.1662304  )
        14           Zn  tau(  14) = (  0.4163839  0.0827699  0.5003417  )
        15           Zn  tau(  15) = (  0.4166512  0.0833084  0.8335641  )
        16           Zn  tau(  16) = (  0.4159717  0.3329054  0.1665389  )
        17           Zn  tau(  17) = (  0.4130748  0.3311334  0.5016360  )
        18           Zn  tau(  18) = (  0.4177736  0.3339481  0.8329489  )
        19           Zn  tau(  19) = (  0.4159624  0.5830698  0.1665341  )
        20           Zn  tau(  20) = (  0.4129924  0.5819536  0.5016347  )
        21           Zn  tau(  21) = (  0.4177522  0.5838417  0.8329721  )
        22           Zn  tau(  22) = (  0.4166366  0.8333634  0.1662281  )
        23           Zn  tau(  23) = (  0.4163476  0.8336524  0.5003476  )
        24           Zn  tau(  24) = (  0.4166323  0.8333677  0.8335773  )
        25           Zn  tau(  25) = (  0.6667338  0.0833669  0.1662564  )
        26           Zn  tau(  26) = (  0.6665236  0.0832579  0.5002789  )
        27           Zn  tau(  27) = (  0.6666400  0.0833210  0.8334049  )
        28           Zn  tau(  28) = (  0.6669431  0.3329002  0.1665334  )
        29           Zn  tau(  29) = (  0.6681309  0.3310677  0.5016450  )
        30           Zn  tau(  30) = (  0.6661950  0.3339231  0.8329682  )
        31           Zn  tau(  31) = (  0.6666660  0.5833340  0.1670506  )
        32           Zn  tau(  32) = (  0.6666562  0.5833438  0.8350279  )
        33           Zn  tau(  33) = (  0.6669302  0.8340376  0.1665341  )
        34           Zn  tau(  34) = (  0.6680464  0.8370076  0.5016347  )
        35           Zn  tau(  35) = (  0.6661583  0.8322478  0.8329721  )
        36           Zn  tau(  36) = (  0.9167901  0.0835679  0.1663873  )
        37           Zn  tau(  37) = (  0.9169068  0.0838041  0.5001072  )
        38           Zn  tau(  38) = (  0.9166905  0.0833645  0.8336208  )
        39           Zn  tau(  39) = (  0.9167937  0.3332063  0.1663873  )
        40           Zn  tau(  40) = (  0.9169185  0.3330815  0.5001065  )
        41           Zn  tau(  41) = (  0.9167045  0.3332955  0.8336373  )
        42           Zn  tau(  42) = (  0.9170998  0.5830569  0.1665334  )
        43           Zn  tau(  43) = (  0.9189323  0.5818691  0.5016450  )
        44           Zn  tau(  44) = (  0.9160769  0.5838050  0.8329682  )
        45           Zn  tau(  45) = (  0.9170946  0.8340283  0.1665389  )
        46           Zn  tau(  46) = (  0.9188666  0.8369252  0.5016360  )
        47           Zn  tau(  47) = (  0.9160519  0.8322264  0.8329489  )
        48           Zn  tau(  48) = (  0.0833435  0.1666565  0.0000491  )
        49           Zn  tau(  49) = (  0.0833101  0.1666899  0.3330980  )
        50           Zn  tau(  50) = (  0.0834097  0.1665903  0.6669610  )
        51           Zn  tau(  51) = (  0.0833487  0.4166810  0.0000571  )
        52           Zn  tau(  52) = (  0.0833174  0.4166262  0.3330948  )
        53           Zn  tau(  53) = (  0.0834464  0.4168505  0.6669750  )
        54           Zn  tau(  54) = (  0.0832264  0.6665915  0.9997900  )
        55           Zn  tau(  55) = (  0.0842100  0.6670174  0.3328667  )
        56           Zn  tau(  56) = (  0.0822375  0.6667342  0.6672604  )
        57           Zn  tau(  57) = (  0.0832234  0.9166246  0.9997808  )
        58           Zn  tau(  58) = (  0.0842150  0.9172021  0.3328733  )
        59           Zn  tau(  59) = (  0.0821658  0.9154756  0.6672414  )
        60           Zn  tau(  60) = (  0.3333754  0.1667766  0.9997808  )
        61           Zn  tau(  61) = (  0.3327979  0.1657849  0.3328733  )
        62           Zn  tau(  62) = (  0.3345244  0.1678342  0.6672414  )
        63           Zn  tau(  63) = (  0.3334233  0.4167154  0.9997458  )
        64           Zn  tau(  64) = (  0.3323882  0.4162045  0.3330538  )
        65           Zn  tau(  65) = (  0.3336730  0.4168724  0.6678028  )
        66           Zn  tau(  66) = (  0.3333662  0.6666016  0.9997928  )
        67           Zn  tau(  67) = (  0.3327998  0.6670342  0.3328629  )
        68           Zn  tau(  68) = (  0.3345026  0.6667840  0.6672635  )
        69           Zn  tau(  69) = (  0.3333271  0.9166729  0.0000454  )
        70           Zn  tau(  70) = (  0.3333232  0.9166768  0.3327398  )
        71           Zn  tau(  71) = (  0.3332993  0.9167007  0.6669848  )
        72           Zn  tau(  72) = (  0.5834085  0.1667736  0.9997900  )
        73           Zn  tau(  73) = (  0.5829826  0.1657899  0.3328667  )
        74           Zn  tau(  74) = (  0.5832658  0.1677625  0.6672604  )
        75           Zn  tau(  75) = (  0.5832215  0.4164221  0.0008177  )
        76           Zn  tau(  76) = (  0.5824642  0.4148999  0.3307421  )
        77           Zn  tau(  77) = (  0.5896497  0.4291550  0.6644546  )
        78           Zn  tau(  78) = (  0.5832122  0.6667878  0.0008245  )
        79           Zn  tau(  79) = (  0.5824415  0.6675585  0.3307332  )
        80           Zn  tau(  80) = (  0.5895609  0.6604391  0.6644700  )
        81           Zn  tau(  81) = (  0.5833984  0.9166338  0.9997928  )
        82           Zn  tau(  82) = (  0.5829658  0.9172002  0.3328629  )
        83           Zn  tau(  83) = (  0.5832160  0.9154974  0.6672635  )
        84           Zn  tau(  84) = (  0.8333190  0.1666512  0.0000571  )
        85           Zn  tau(  85) = (  0.8333738  0.1666826  0.3330948  )
        86           Zn  tau(  86) = (  0.8331495  0.1665536  0.6669750  )
        87           Zn  tau(  87) = (  0.8332753  0.4167247  0.9997446  )
        88           Zn  tau(  88) = (  0.8338187  0.4161813  0.3330493  )
        89           Zn  tau(  89) = (  0.8332378  0.4167622  0.6678271  )
        90           Zn  tau(  90) = (  0.8335779  0.6667785  0.0008177  )
        91           Zn  tau(  91) = (  0.8351001  0.6675358  0.3307421  )
        92           Zn  tau(  92) = (  0.8208450  0.6603503  0.6644546  )
        93           Zn  tau(  93) = (  0.8332846  0.9165767  0.9997458  )
        94           Zn  tau(  94) = (  0.8337955  0.9176118  0.3330538  )
        95           Zn  tau(  95) = (  0.8331276  0.9163270  0.6678028  )
        96           O   tau(  96) = (  0.1666300  0.0833700  0.2937704  )
        97           O   tau(  97) = (  0.1669687  0.0830312  0.6271554  )
        98           O   tau(  98) = (  0.1666727  0.0833273  0.9604714  )
        99           O   tau(  99) = (  0.1666399  0.3333123  0.2938463  )
       100           O   tau( 100) = (  0.1675042  0.3337513  0.6269614  )
       101           O   tau( 101) = (  0.1667671  0.3333747  0.9606204  )
       102           O   tau( 102) = (  0.1666242  0.5832434  0.2937643  )
       103           O   tau( 103) = (  0.1669897  0.5839499  0.6271569  )
       104           O   tau( 104) = (  0.1666709  0.5833278  0.9604775  )
       105           O   tau( 105) = (  0.1665802  0.8332892  0.2937271  )
       106           O   tau( 106) = (  0.1663031  0.8331565  0.6269600  )
       107           O   tau( 107) = (  0.1666253  0.8333095  0.9605566  )
       108           O   tau( 108) = (  0.4167108  0.0834198  0.2937271  )
       109           O   tau( 109) = (  0.4168435  0.0836969  0.6269600  )
       110           O   tau( 110) = (  0.4166905  0.0833747  0.9605566  )
       111           O   tau( 111) = (  0.4167177  0.3333630  0.2946168  )
       112           O   tau( 112) = (  0.4205750  0.3364882  0.6274637  )
       113           O   tau( 113) = (  0.4172753  0.3337020  0.9601880  )
       114           O   tau( 114) = (  0.4167031  0.5833570  0.2946112  )
       115           O   tau( 115) = (  0.4205160  0.5841818  0.6274627  )
       116           O   tau( 116) = (  0.4172711  0.5835797  0.9602041  )
       117           O   tau( 117) = (  0.4166994  0.8333006  0.2937223  )
       118           O   tau( 118) = (  0.4168018  0.8331982  0.6269621  )
       119           O   tau( 119) = (  0.4166870  0.8333130  0.9605658  )
       120           O   tau( 120) = (  0.6667566  0.0833758  0.2937643  )
       121           O   tau( 121) = (  0.6660501  0.0830103  0.6271569  )
       122           O   tau( 122) = (  0.6666722  0.0833291  0.9604775  )
       123           O   tau( 123) = (  0.6666625  0.3333474  0.2946077  )
       124           O   tau( 124) = (  0.6659835  0.3363878  0.6274715  )
       125           O   tau( 125) = (  0.6664406  0.3336841  0.9602025  )
       126           O   tau( 126) = (  0.6666639  0.5833361  0.2966773  )
       127           O   tau( 127) = (  0.6666709  0.5833291  0.9614218  )
       128           O   tau( 128) = (  0.6666430  0.8332969  0.2946112  )
       129           O   tau( 129) = (  0.6658182  0.8294840  0.6274627  )
       130           O   tau( 130) = (  0.6664203  0.8327289  0.9602041  )
       131           O   tau( 131) = (  0.9166877  0.0833601  0.2938463  )
       132           O   tau( 132) = (  0.9162487  0.0824958  0.6269614  )
       133           O   tau( 133) = (  0.9166253  0.0832329  0.9606204  )
       134           O   tau( 134) = (  0.9166990  0.3333010  0.2938422  )
       135           O   tau( 135) = (  0.9163153  0.3336847  0.6269591  )
       136           O   tau( 136) = (  0.9166355  0.3333645  0.9606253  )
       137           O   tau( 137) = (  0.9166526  0.5833375  0.2946077  )
       138           O   tau( 138) = (  0.9136122  0.5840165  0.6274715  )
       139           O   tau( 139) = (  0.9163159  0.5835594  0.9602025  )
       140           O   tau( 140) = (  0.9166370  0.8332823  0.2946168  )
       141           O   tau( 141) = (  0.9135118  0.8294250  0.6274637  )
       142           O   tau( 142) = (  0.9162980  0.8327247  0.9601880  )
       143           O   tau( 143) = (  0.0833395  0.1666605  0.1272834  )
       144           O   tau( 144) = (  0.0834948  0.1665052  0.4604054  )
       145           O   tau( 145) = (  0.0833161  0.1666839  0.7936950  )
       146           O   tau( 146) = (  0.0833426  0.4166794  0.1272881  )
       147           O   tau( 147) = (  0.0835292  0.4170163  0.4603995  )
       148           O   tau( 148) = (  0.0833311  0.4166473  0.7937024  )
       149           O   tau( 149) = (  0.0831675  0.6665648  0.1272348  )
       150           O   tau( 150) = (  0.0826510  0.6667338  0.4603417  )
       151           O   tau( 151) = (  0.0829326  0.6665487  0.7938127  )
       152           O   tau( 152) = (  0.0831625  0.9166064  0.1272304  )
       153           O   tau( 153) = (  0.0826079  0.9158970  0.4603508  )
       154           O   tau( 154) = (  0.0829183  0.9163795  0.7938006  )
       155           O   tau( 155) = (  0.3333936  0.1668375  0.1272304  )
       156           O   tau( 156) = (  0.3341030  0.1673921  0.4603508  )
       157           O   tau( 157) = (  0.3336205  0.1670817  0.7938006  )
       158           O   tau( 158) = (  0.3334456  0.4167296  0.1273566  )
       159           O   tau( 159) = (  0.3342970  0.4171759  0.4605151  )
       160           O   tau( 160) = (  0.3335149  0.4167756  0.7940710  )
       161           O   tau( 161) = (  0.3333875  0.6665713  0.1272349  )
       162           O   tau( 162) = (  0.3340829  0.6667793  0.4603385  )
       163           O   tau( 163) = (  0.3336053  0.6665771  0.7938162  )
       164           O   tau( 164) = (  0.3333254  0.9166746  0.1272823  )
       165           O   tau( 165) = (  0.3333083  0.9166917  0.4600189  )
       166           O   tau( 166) = (  0.3333191  0.9166809  0.7937445  )
       167           O   tau( 167) = (  0.5834352  0.1668325  0.1272348  )
       168           O   tau( 168) = (  0.5832662  0.1673489  0.4603417  )
       169           O   tau( 169) = (  0.5834513  0.1670674  0.7938127  )
       170           O   tau( 170) = (  0.5834212  0.4168482  0.1285192  )
       171           O   tau( 171) = (  0.5866383  0.4231204  0.4629767  )
       172           O   tau( 172) = (  0.5843314  0.4186059  0.7912049  )
       173           O   tau( 173) = (  0.5834166  0.6665834  0.1285209  )
       174           O   tau( 174) = (  0.5864816  0.6635184  0.4629624  )
       175           O   tau( 175) = (  0.5842739  0.6657261  0.7912115  )
       176           O   tau( 176) = (  0.5834287  0.9166125  0.1272349  )
       177           O   tau( 177) = (  0.5832207  0.9159171  0.4603385  )
       178           O   tau( 178) = (  0.5834229  0.9163947  0.7938162  )
       179           O   tau( 179) = (  0.8333206  0.1666574  0.1272881  )
       180           O   tau( 180) = (  0.8329837  0.1664708  0.4603995  )
       181           O   tau( 181) = (  0.8333527  0.1666688  0.7937024  )
       182           O   tau( 182) = (  0.8332823  0.4167177  0.1273603  )
       183           O   tau( 183) = (  0.8329045  0.4170955  0.4605007  )
       184           O   tau( 184) = (  0.8332671  0.4167329  0.7940798  )
       185           O   tau( 185) = (  0.8331518  0.6665788  0.1285192  )
       186           O   tau( 186) = (  0.8268796  0.6633617  0.4629767  )
       187           O   tau( 187) = (  0.8313941  0.6656686  0.7912049  )
       188           O   tau( 188) = (  0.8332704  0.9165544  0.1273566  )
       189           O   tau( 189) = (  0.8328241  0.9157030  0.4605151  )
       190           O   tau( 190) = (  0.8332244  0.9164851  0.7940710  )
       191           V   tau( 191) = (  0.6666717  0.5833283  0.4967936  )

     number of k points=     1  Gaussian smearing, width (Ry)=  0.0001
                       cart. coord. in units 2pi/alat
        k(    1) = (   0.0000000   0.0000000   0.0000000), wk =   1.0000000

                       cryst. coord.
        k(    1) = (   0.0000000   0.0000000   0.0000000), wk =   1.0000000

     Dense  grid:   744516 G-vectors     FFT dimensions: ( 144, 144, 180)

     Dynamical RAM for                 wfc:     266.28 MB

     Dynamical RAM for     wfc (w. buffer):     266.28 MB

     Dynamical RAM for                 EXX:     943.31 MB

     Dynamical RAM for           str. fact:       2.84 MB

     Dynamical RAM for           local pot:       0.00 MB

     Dynamical RAM for          nlocal pot:     220.84 MB

     Dynamical RAM for                qrad:       5.74 MB

     Dynamical RAM for          rho,v,vnew:      15.65 MB

     Dynamical RAM for           G-vectors:       3.02 MB

     Dynamical RAM for          h,s,v(r/c):     823.97 MB

     Dynamical RAM for          <psi|beta>:      56.95 MB

     Dynamical RAM for                 psi:     532.56 MB

     Dynamical RAM for                hpsi:     532.56 MB

     Dynamical RAM for      wfcinit/wfcrot:     738.58 MB

     Estimated static dynamical RAM per process >       1.44 GB

     Estimated max dynamical RAM per process >       3.34 GB

     Estimated total dynamical RAM >     427.33 GB
     EXX: initializing ACE and reading from file
     ACE potential read for     1260 bands
     ACE potential read for     1260 bands
     Starting ACE correctly read from file
     Generating pointlists ...
     new r_m :   0.4125 (alat units) 10.1293 (a.u.) for type    1
     new r_m :   0.0619 (alat units)  1.5190 (a.u.) for type    2
     new r_m :   0.0596 (alat units)  1.4644 (a.u.) for type    3
     new r_m :   0.0596 (alat units)  1.4644 (a.u.) for type    4

     The potential is recalculated from file :
     temp/pwscf.save/charge-density

     Starting wfcs are 1340 randomized atomic wfcs + 1660 random wfcs

     Band Structure Calculation
     Davidson diagonalization with overlap

     Computing kpt #:     1  of     2
     total cpu time spent up to now is     2151.8 secs

     Computing kpt #:     2  of     2
     total cpu time spent up to now is     4297.0 secs

     ethr =  1.00E-13,  avg # of iterations = 37.0

     total cpu time spent up to now is     4304.9 secs

     End of band structure calculation

 ------ SPIN UP ------------


          k = 0.0000 0.0000 0.0000 ( 93039 PWs)   bands (ev):

  -124.0262-124.0260-124.0247-123.7293-123.7293-123.7265-123.7257-123.7253
  -123.7248-123.7248-123.7209-123.7209-123.4676-123.4640-123.4625-123.4621
  -123.4495-123.4492-123.4491-123.4427-123.4417-123.4414-123.4270-123.4269
  -123.4252-123.4226-123.4220-123.4215-123.4159-123.4159-123.4158-123.4153
  -123.4145-123.4145-123.4127-123.4126-123.4116-123.4112-123.4100-123.4099
  -123.3803-123.3803-123.3802-123.3797-123.3795-123.3794-123.3744-123.3740
  -123.3735-123.3730-123.3729-123.3672-123.3667-123.3666-123.3522-123.3416
  -123.3416-123.3416-123.3412-123.3409-123.3409-123.3409-123.3408-123.3402
  -123.3288-123.3281-123.3279-123.3271-123.3271-123.3269-123.3266-123.3266
  -123.3264-123.3116-123.3108-123.3104-123.3015-123.3014-123.3007-123.3002
  -123.2994-123.2992-123.2991-123.2989-123.2989-123.2988-123.2983-123.2982
  -123.2940-123.2940-123.2937-123.2850-123.2835-123.2832-123.2832 -75.5727
   -75.5700 -75.5691 -75.5291 -75.5285 -75.5270 -75.5268 -75.5263 -75.5252
   -75.2998 -75.2997 -75.2968 -75.2932 -75.2927 -75.2922 -75.2922 -75.2886
   -75.2882 -75.2641 -75.2636 -75.2611 -75.2596 -75.2587 -75.2587 -75.2582
   -75.2567 -75.2567 -75.2547 -75.2546 -75.2545 -75.2541 -75.2540 -75.2537
   -75.2536 -75.2500 -75.2499 -75.0228 -75.0113 -75.0101 -75.0100 -75.0096
   -75.0086 -75.0084 -75.0077 -75.0077 -75.0061 -75.0047 -75.0044 -74.9984
   -74.9979 -74.9978 -74.9941 -74.9938 -74.9935 -74.9934 -74.9931 -74.9929
   -74.9928 -74.9926 -74.9922 -74.9883 -74.9875 -74.9870 -74.9851 -74.9842
   -74.9840 -74.9753 -74.9752 -74.9736 -74.9732 -74.9729 -74.9729 -74.9726
   -74.9720 -74.9718 -74.9712 -74.9711 -74.9696 -74.9673 -74.9672 -74.9671
   -74.9670 -74.9667 -74.9666 -74.9660 -74.9658 -74.9658 -74.9640 -74.9638
   -74.9632 -74.9617 -74.9617 -74.9615 -74.9611 -74.9610 -74.9609 -74.9605
   -74.9603 -74.9599 -74.9598 -74.9591 -74.9589 -74.9589 -74.9586 -74.9581
   -74.9578 -74.9575 -74.9568 -74.9547 -74.9546 -74.9543 -74.9537 -74.9535
   -74.9532 -74.9530 -74.9527 -74.9521 -74.9518 -74.9515 -74.9511 -74.9326
   -74.9325 -74.9324 -74.9321 -74.9318 -74.9317 -74.9244 -74.9243 -74.9238
   -74.9237 -74.9236 -74.9234 -74.9231 -74.9225 -74.9224 -74.9221 -74.9220
   -74.9219 -74.9219 -74.9217 -74.9212 -74.9210 -74.9206 -74.9205 -74.9196
   -74.9194 -74.9193 -74.9188 -74.9186 -74.9184 -74.9179 -74.9177 -74.9175
   -74.9135 -74.9129 -74.9127 -74.9122 -74.9121 -74.9118 -74.9114 -74.9114
   -74.9112 -74.8989 -74.8969 -74.8968 -74.8910 -74.8909 -74.8903 -74.8901
   -74.8899 -74.8898 -74.8896 -74.8894 -74.8891 -74.8864 -74.8860 -74.8859
   -74.8856 -74.8855 -74.8852 -74.8850 -74.8846 -74.8845 -74.8844 -74.8842
   -74.8842 -74.8841 -74.8839 -74.8839 -74.8837 -74.8836 -74.8833 -74.8789
   -74.8783 -74.8782 -74.8772 -74.8771 -74.8769 -74.8766 -74.8766 -74.8765
   -74.8732 -74.8731 -74.8726 -74.8726 -74.8724 -74.8723 -74.8722 -74.8716
   -74.8716 -74.8714 -74.8713 -74.8713 -74.8710 -74.8704 -74.8704 -74.8703
   -74.8701 -74.8701 -74.8606 -74.8598 -74.8595 -74.8563 -74.8557 -74.8553
   -74.8544 -74.8537 -74.8536 -74.8494 -74.8493 -74.8486 -74.8484 -74.8484
   -74.8481 -74.8480 -74.8477 -74.8476 -74.8476 -74.8472 -74.8471 -74.8470
   -74.8469 -74.8464 -74.8463 -74.8456 -74.8452 -74.8450 -74.8445 -74.8444
   -74.8442 -74.8439 -74.8436 -74.8435 -74.8435 -74.8434 -74.8432 -74.8432
   -74.8430 -74.8428 -74.8425 -74.8425 -74.8423 -74.8422 -74.8422 -74.8421
   -74.8419 -74.8416 -74.8393 -74.8390 -74.8390 -74.8384 -74.8383 -74.8382
   -74.8342 -74.8326 -74.8323 -74.8323 -74.8294 -74.8294 -74.8284 -74.8281
   -74.8280 -74.8275 -74.8274 -74.8273 -61.9252 -33.5715 -33.4484 -33.4474
   -11.8112 -11.5465 -11.5432 -11.5052 -11.3844 -11.3485 -11.2860 -11.2852
   -11.2468 -11.2241 -11.2233 -11.2099 -11.1465 -11.1465 -11.1217 -11.1057
   -11.1054 -11.0986 -11.0981 -11.0865 -11.0854 -11.0849 -11.0795 -11.0490
   -11.0049 -10.9841 -10.9574 -10.9518 -10.9308 -10.9297 -10.9088 -10.9083
   -10.8941 -10.8935 -10.8912 -10.8655 -10.8648 -10.8600 -10.8500 -10.8500
   -10.8495 -10.8490 -10.8416 -10.8260 -10.8185 -10.8184 -10.8086 -10.8042
   -10.8001 -10.7995 -10.7994 -10.7981 -10.7953 -10.7950 -10.7879 -10.7876
   -10.7764 -10.7725 -10.7724 -10.7677 -10.7589 -10.7588 -10.7565 -10.7339
   -10.7336 -10.7335 -10.7002 -10.6993 -10.6991 -10.6862 -10.6860 -10.6846
   -10.6817 -10.6816 -10.6745 -10.6741 -10.6741 -10.6700 -10.6591 -10.6590
   -10.6525 -10.6482 -10.6482 -10.6460 -10.6458 -10.6390 -10.6037 -10.5946
   -10.5942 -10.5858 -10.5763 -10.5762 -10.5730 -10.5729 -10.5707   1.3418
     1.3645   1.3649   1.3685   1.3824   1.3834   1.3930   1.4015   1.4021
     1.4114   1.4116   1.4243   1.4361   1.4364   1.4447   1.4447   1.4653
     1.4655   1.4672   1.4693   1.4965   1.5006   1.5008   1.5047   1.5094
     1.5094   1.5254   1.5385   1.5385   1.5446   1.5508   1.5508   1.5665
     1.5723   1.5725   1.5738   1.5840   1.5841   1.5872   1.5923   1.5923
     1.6084   1.6098   1.6101   1.6147   1.6171   1.6174   1.6194   1.6194
     1.6270   1.6272   1.6377   1.6378   1.6398   1.6413   1.6424   1.6425
     1.6474   1.6543   1.6546   1.6557   1.6664   1.6716   1.6719   1.6746
     1.6747   1.6758   1.6786   1.6789   1.6796   1.6888   1.6890   1.7004
     1.7031   1.7031   1.7057   1.7068   1.7071   1.7138   1.7140   1.7169
     1.7197   1.7197   1.7298   1.7301   1.7316   1.7397   1.7398   1.7406
     1.7450   1.7451   1.7495   1.7506   1.7537   1.7538   1.7643   1.7672
     1.7673   1.7690   1.7692   1.7696   1.7780   1.7780   1.7791   1.7848
     1.7848   1.7910   1.7911   1.7929   1.8032   1.8075   1.8076   1.8100
     1.8113   1.8116   1.8116   1.8120   1.8208   1.8210   1.8355   1.8365
     1.8367   1.8431   1.8435   1.8478   1.8478   1.8505   1.8591   1.8623
     1.8653   1.8660   1.8661   1.8766   1.8790   1.8791   1.8871   1.8872
     1.8989   1.8989   1.9017   1.9050   1.9074   1.9074   1.9217   1.9218
     1.9245   1.9293   1.9330   1.9332   1.9396   1.9404   1.9405   1.9419
     1.9490   1.9497   1.9497   1.9560   1.9590   1.9591   1.9671   1.9671
     1.9711   1.9712   1.9723   1.9755   1.9764   1.9798   1.9800   1.9831
     1.9834   1.9881   1.9915   1.9940   1.9942   2.0094   2.0095   2.0107
     2.0109   2.0119   2.0260   2.0260   2.0273   2.0273   2.0293   2.0294
     2.0337   2.0339   2.0342   2.0343   2.0360   2.0432   2.0432   2.0463
     2.0544   2.0560   2.0575   2.0577   2.0626   2.0706   2.0706   2.0751
     2.0752   2.0779   2.0843   2.0864   2.0865   2.0990   2.0992   2.0995
     2.1005   2.1031   2.1032   2.1138   2.1227   2.1286   2.1287   2.1392
     2.1394   2.1560   2.1616   2.1618   2.1707   2.1709   2.1808   2.1861
     2.1861   2.1912   2.1928   2.2002   2.2032   2.2033   2.2060   2.2147
     2.2175   2.2176   2.2224   2.2224   2.2309   2.2309   2.2352   2.2356
     2.2357   2.2481   2.2485   2.2494   2.2552   2.2552   2.2557   2.2623
     2.2624   2.2686   2.2687   2.2723   2.2747   2.3030   2.3031   2.3115
     2.3238   2.3238   2.3344   2.3396   2.3399   2.3427   2.3499   2.3502
     2.3578   2.3716   2.3716   2.3837   2.3838   2.3893   2.3893   2.3896
     2.4012   2.4074   2.4142   2.4143   2.4177   2.4273   2.4305   2.4306
     2.4450   2.4467   2.4473   2.4529   2.4530   2.4553   2.4650   2.4715
     2.4716   2.4774   2.4782   2.4785   2.4865   2.5005   2.5005   2.5051
     2.5058   2.5058   2.5144   2.5220   2.5245   2.5250   2.5355   2.5357
     2.5387   2.5433   2.5438   2.5444   2.5663   2.5664   2.5791   2.5794
     2.5856   2.5878   2.5879   2.5926   2.5945   2.5946   2.6028   2.6077
     2.6077   2.6152   2.6236   2.6237   2.6242   2.6333   2.6334   2.6392
     2.6414   2.6432   2.6433   2.6522   2.6523   2.6562   2.6563   2.6566
     2.6589   2.6692   2.6693   2.6731   2.6735   2.6755   2.6755   2.6784
     2.6797   2.6798   2.6803   2.6815   2.6816   2.6881   2.6886   2.6887
     2.6906   2.6932   2.6934   2.7020   2.7041   2.7043   2.7085   2.7085
     2.7094   2.7229   2.7230   2.7280   2.7281   2.7310   2.7373   2.7373
     2.7435   2.7482   2.7484   2.7502   2.7522   2.7522   2.7616   2.7617
     2.7634   2.7662   2.7664   2.7665   2.7667   2.7703   2.7707   2.7744
     2.7747   2.7747   2.7854   2.7889   2.7913   2.7915   2.7963   2.7964
     2.7987   2.8037   2.8037   2.8099   2.8102   2.8167   2.8200   2.8200
     2.8235   2.8281   2.8281   2.8286   2.8287   2.8289   2.8332   2.8345
     2.8347   2.8465   2.8472   2.8472   2.8517   2.8525   2.8525   2.8581
     2.8581   2.8632   2.8633   2.8656   2.8672   2.8673   2.8678   2.8682
     2.8699   2.8699   2.8738   2.8833   2.8834   2.8838   2.8922   2.8932
     2.8933   2.8947   2.8978   2.8979   2.9014   2.9014   2.9214   2.9214
     2.9324   2.9364   2.9364   2.9387   2.9509   2.9531   2.9531   2.9601
     2.9840   2.9842   3.0004   3.0061   3.0061   3.0068   3.0375   3.0375
     3.0397   3.0499   3.0511   3.0533   3.0533   3.0767   3.0767   3.0816
     3.0819   3.1155   3.1158   3.1371   3.1741   3.1767   3.1774   3.1775
     3.1964   3.1964   3.4116   3.7556   3.7558   3.8657   3.8660   3.9139
     3.9241   3.9848   3.9909   3.9910   4.0052   4.0053   4.0120   4.0300
     4.0781   4.0785   4.1891   4.1906   4.2122   4.2281   4.2282   4.2578
     4.2950   4.2954   4.3401   4.3700   4.3953   4.3954   4.4028   4.4119
     4.4121   4.4278   4.4430   4.4432   4.4702   4.4866   4.4874   4.4875
     4.5024   4.5025   4.5406   4.5695   4.5706   4.6882   4.6885   4.7395
     4.7592   4.7711   4.7715   4.7728   4.7851   4.7972   4.7972   4.8077
     4.8317   4.8318   4.8863   4.8863   4.8984   4.9044   4.9376   4.9376
     4.9603   4.9606   5.0316   5.0326   5.0329   5.0424   5.0579   5.0580
     5.0725   5.0726   5.0862   5.0885   5.1324   5.2593   5.2606   5.3481
     5.3488   5.5014   5.5025   5.5395   5.5402   5.5509   5.5836   5.5838
     5.6402   5.6404   5.6536   5.6558   5.6843   5.6845   5.6856   5.7060
     5.7064   5.7642   5.7661   5.7665   5.7852   5.7900   5.7901   5.7903
     5.7988   5.7988   5.8065   5.8125   5.8771   5.8773   5.8925   5.9256
     5.9258   5.9718   5.9720   5.9778   5.9780   5.9810   5.9934   6.0187
     6.0191   6.0225   6.1360   6.1369   6.1591   6.1904   6.1905   6.3347
     6.3348   6.3891   6.4649   6.4651   6.4930   6.4986   6.5165   6.5166
     6.5278   6.5416   6.5419   6.5476   6.5476   6.5495   6.5688   6.5691
     6.5691   6.5717   6.5797   6.5799   6.5932   6.5947   6.6076   6.6076
     6.6170   6.6171   6.6172   6.6236   6.6274   6.6276   6.6770   6.6797
     6.6797   6.6935   6.7077   6.7077   6.7265   6.7272   6.7273   6.7716
     6.7717   6.7959   6.7962   6.7996   6.8189   6.8241   6.8324   6.8325
     6.8468   6.8468   6.8682   6.9368   6.9370   6.9500   6.9731   6.9751
     6.9754   7.0277   7.0283   7.0652   7.1204   7.1436   7.1441   7.1530
     7.1695   7.1723   7.1725   7.2013   7.2016   7.2363   7.2435   7.2438
     7.2459   7.2498   7.2719   7.2721   7.2897   7.2898   7.2952   7.3038
     7.3056   7.3057   7.3145   7.3164   7.3283   7.3284   7.3316   7.3561
     7.3562   7.3656   7.3878   7.3881   7.3884   7.3990   7.3991   7.4746
     7.4788   7.4796   7.4796   7.4882   7.4930   7.4930   7.5080   7.5136
     7.5138   7.5210   7.5213   7.5800   7.5800   7.6087   7.6393   7.6394
     7.6865   7.7048   7.7051   7.7060   7.7315   7.7316   7.7613   7.7614
     7.7707   7.7710   7.7875   7.7886   7.7886   7.7893   7.8448   7.8449
     7.8449   7.8618   7.8621   7.8748   7.8933   7.9019   7.9021   7.9052
     7.9629   7.9718   7.9719   7.9804   7.9805   8.0383   8.0387   8.0938
     8.0940   8.1143   8.1380   8.1382   8.1822   8.1884   8.1885   8.1973
     8.3372   8.3373   8.4023   8.4023   8.5046   8.6165   8.6165   8.7395
     8.7398   9.1954  11.3944  12.6199  12.8571  13.0585  13.1372  13.1375
    13.5785  13.5787  13.7586  13.7594  13.7844  13.9593  14.3586  14.3588
    14.3791  14.5154  14.5212  14.5294  16.7201  16.7340  16.7344  16.7358
    16.7508  17.0603  17.1407  17.4163  17.7311  17.7329  17.7883  17.8464
    17.8465  17.9333  17.9452  17.9462  18.0096  18.1202  18.4094  18.4104
    18.4112  18.4511  18.4513  18.4910  18.4929  18.4938  18.5054  18.5058
    18.5211  18.5220  18.5222  18.5299  18.5530  18.5537  18.6162  18.6716
    18.7217  18.7218  18.7446  18.7662  18.7716  18.7723  18.8013  18.8018
    18.8187  18.8188  18.8699  18.8703  18.8772  18.8843  18.8848  18.8992
    18.8996  18.9711  18.9713  18.9739  19.1347  19.2393  19.2396  19.2890
    19.3064  19.3096  19.3102  19.3660  19.3775  19.3780  19.4607  19.4613
    19.6117  19.7481  19.7495  19.8012  19.8014  19.8023  19.8179  19.8328
    19.8333  20.0156  20.0157  20.0421  20.1492  20.1503  20.1511  20.2009
    20.3372  20.3376  20.5650  20.5655  20.5943  20.6061  20.6066  20.9422
    20.9570  21.0582  21.0600  21.0604  21.1542  21.1544  21.1804  21.2030
    21.2797  21.2871  21.2873  21.3027  21.3034  21.3308  21.3386  21.3396
    21.3410  21.3498  21.3499  21.3727  21.3734  21.3757  21.5499  21.5501
    21.6058  21.7033  21.7039  21.7067  21.7430  21.7432  21.7611  21.7694
    21.7844  21.8014  21.8239  21.8261  21.8503  21.8667  21.8814  21.9392
    21.9651  21.9673  22.0074  22.0095  22.0099  22.0335  22.0343  22.0490
    22.0599  22.0621  22.0623  22.0981  22.0985  22.1065  22.1322  22.1333
    22.1405  22.1466  22.1467  22.1543  22.1555  22.1640  22.1643  22.2090
    22.2097  22.2108  22.2148  22.2153  22.3097  22.3677  22.3892  22.3947
    22.4093  22.4297  22.4438  22.4479  22.4698  22.4873  22.4923  22.5277
    22.6283  22.8408  22.8410  22.8962  22.8969  22.8979  22.9241  22.9595
    22.9669  22.9673  22.9925  22.9926  23.1696  23.2801  23.2805  23.2883
    23.3432  23.4699  23.4699  23.4748  23.4926  23.4929  23.4973  23.5039
    23.5040  23.5042  23.5211  23.5214  23.5238  23.5238  23.5834  23.6711
    23.7214  23.7227  23.7294  23.7784  23.7788  23.8367  23.8376  23.8769
    24.0020  24.0969  24.0973  24.1379  24.1383  24.1773  24.1789  24.1797
    24.1971  24.2009  24.2368  24.2433  24.2460  24.2469  24.2481  24.2670
    24.2985  24.3055  24.3201  24.3273  24.3464  24.3479  24.3702  24.3911
    24.3917  24.4596  24.5342  24.5389  24.5690  24.6154  24.6160  24.6166
    24.6339  24.6342  24.6701  24.6973  24.6975  24.7186  24.7563  24.7563
    24.8282  24.8337  24.8581  24.8597  24.8664  24.8818  24.8894  24.8991
    24.9020  24.9323  24.9353  24.9629  25.0563  25.2515  25.3041  25.3046
    25.3898  25.3955  25.3957  25.4096  25.4099  25.4247  25.4408  25.4520
    25.4533  25.4599  25.4703  25.4708  25.4920  25.4922  25.5762  25.5763
    25.5910  25.6406  25.6407  25.6863  25.6865  25.8111  25.8263  25.8269
    25.9234  25.9241  26.0545  26.1036  26.1046  26.1585  26.1608  26.1672
    26.1997  26.2001  26.2125  26.2159  26.2159  26.2333  26.2366  26.2369
    26.2423  26.2739  26.2739  26.2826  26.2945  26.2946  26.3055  26.3249
    26.3256  26.3528  26.3537  26.4545  26.4553  26.5050  26.5050  26.5980
    26.6205  26.6379  26.6382  26.6547  26.6721  26.6727  26.6812  26.7385
    26.7394  26.7950  26.7952  26.8824  26.8910  26.9285  26.9292  26.9515
    26.9655  26.9656  26.9767  27.0743  27.0751  27.1072  27.1075  27.1119
    27.1215  27.1792  27.1796  27.1877  27.2068  27.2075  27.2923  27.2925
    27.3291  27.4883  27.4886  27.5540  27.5542  27.5879  27.6340  27.9607
    27.9847  27.9966  28.0120  28.0207  28.0356  28.0444  28.0560  28.0698
    28.0849  28.0867  28.1264  28.1264  28.1385  28.1437  28.1469  28.1472
    28.1637  28.1818  28.1819  28.2027  28.2765  28.2833  28.2845  28.3141
    28.3304  28.3309  28.4654  28.4728  28.4730  28.4822  28.5053  28.5131
    28.5158  28.5160  28.5204  28.5209  28.5419  28.5421  28.5748  28.5750
    28.5788  28.5969  28.5971  28.6340  28.7498  28.7498  28.7554  28.8533
    28.9160  28.9173  29.1560  29.2751  29.5282  29.9021  29.9934  29.9937
    30.0310  30.1022  30.1051  30.1059  30.1728  30.1732  30.2350  30.2353
    30.2431  30.2573  30.2720  30.2723  30.2867  30.3045  30.3047  30.3162
    30.3164  30.3216  30.3337  30.3361  30.3362  30.4418  30.4702  30.4706
    30.4797  30.5229  30.5229  30.5297  30.5298  30.5339  30.5487  30.5492
    30.5567  30.5680  30.5683  30.5930  30.5935  30.6756  30.7537  30.7554
    30.8387  31.0582  31.1201  31.3443  31.3446  31.4061  31.4200  31.4203
    31.4438  31.4439  31.5523  31.6066  31.6068  31.6353  31.6601  31.6670
    31.6671  31.6722  31.6726  31.6774  31.6847  31.6850  31.6991  31.6995
    31.7071  31.7226  31.7305  31.7306  31.8042  31.8050  31.8206  32.0390
    32.0396  32.0849  32.2523  32.2530  32.4807  32.5114  32.5289  32.5289
    32.5573  32.5576  32.5659  32.6559  32.6559  32.7010  32.7655  32.7665
    32.8374  32.8374  33.0325  33.0327  33.0832  33.2410  33.2681  33.2682
    33.3076  33.3162  33.3162  33.3174  33.3326  33.3330  33.3418  33.3525
    33.3530  33.4179  33.4180  33.4286  33.4503  33.4508  33.5377  33.6966
    33.7660  33.8161  33.8161  33.8316  33.8317  33.9876  33.9978  34.0456
    34.1330  34.2729  34.2793  34.2972  34.3036  34.3063  34.3202  34.3318
    34.3393  34.3426  34.3447  34.3676  34.4074  34.4408  34.4418  34.4440
    34.4476  34.5495  34.5506  34.5865  34.5904  34.5907  34.6320  34.6458
    34.6461  34.6723  34.6724  34.7079  34.7084  34.7270  34.7786  34.7791
    34.7947  34.8000  34.8030  34.8099  34.8145  34.8325  34.8559  34.8573
    34.8587  34.8734  34.8826  34.8931  34.9300  34.9755  34.9776  34.9865
    34.9912  35.0083  35.0090  35.0213  35.0432  35.0442  35.0482  35.0770
    35.0780  35.1379  35.2440  35.2443  35.2508  35.2829  35.2835  35.2837
    35.3320  35.3324  35.3502  35.3516  35.3543  35.3840  35.4787  35.4788
    35.5235  35.5236  35.5545  35.6570  35.7722  35.8311  35.8319  35.8320
    35.8421  35.8422  35.9533  35.9602  35.9752  35.9761  35.9961  36.0089
    36.0091  36.0097  36.0341  36.0446  36.0455  36.1797  36.2853  36.4100
    36.4107  36.5597  36.5624  36.5653  36.5766  36.5826  36.5832  36.6147
    36.6155  36.6172  36.6276  36.6283  36.6422  36.6440  36.6463  36.6486
    36.6574  36.6741  36.6829  36.6834  36.6853  36.6857  36.6936  36.6938
    36.7131  36.7169  36.7181  36.7189  36.7215  36.7240  36.7387  36.7393
    36.7397  36.7487  36.7498  36.7500  36.7690  36.7707  36.8108  36.8123
    36.8192  36.8588  36.8590  36.9516  36.9867  36.9868  37.1296  37.2133
    37.2329  37.2364  37.2397  37.2400  37.2770  37.2794  37.2841  37.2856
    37.2916  37.2943  37.3060  37.3149  37.3166  37.3378  37.3607  37.3613
    37.3805  37.3813  37.3817  37.4083  37.4093  37.4650  37.4654  37.4688
    37.4964  37.4968  37.5130  37.5641  37.5646  37.6032  37.6331  37.6337
    37.6705  37.6718  37.6952  37.7228  37.7241  37.7409  37.7418  37.7843
    37.7845  37.7871  37.8119  37.8126  37.8228  37.8360  37.8362  37.9322
    37.9455  37.9462  38.0103  38.0111  38.0173  38.0394  38.0406  38.0531
    38.0603  38.0608  38.0670  38.1134  38.1137  38.1958  38.1979  38.2062
    38.2462  38.2467  38.2771  38.2999  38.3136  38.3242  38.3242  38.3349
    38.3433  38.3434  38.3649  38.4030  38.4033  38.5212  38.6051  38.6053
    38.6543  38.7169  38.7175  38.7948  38.8472  38.8477  38.8723  38.9159
    38.9332  38.9338  38.9660  38.9865  38.9868  39.0344  39.0353  39.1148
    39.1577  39.1586  39.1936  39.1938  39.2653  39.2663  39.2959  39.2960
    39.3036  39.3085  39.3091  39.3301  39.3701  39.3701  39.3725  39.4127
    39.4462  39.4463  39.4793  39.4798  39.5105  39.5396  39.5400  39.5404
    39.5432  39.5435  39.5471  39.5640  39.5960  39.5968  39.6220  39.6363
    39.6466  39.7899  39.7902  39.9170  39.9968  39.9969  40.0017  40.0421
    40.0422  40.0436  40.0437  40.0524  40.0572  40.0831  40.0961  40.0968
    40.1147  40.1213  40.1216  40.1339  40.1484  40.1531  40.1532  40.1686
    40.1696  40.2371  40.2806  40.2991  40.2997  40.3031  40.3039  40.3322
    40.4561  40.4563  40.4861  40.5047  40.5127  40.5211  40.6019  40.6082
    40.6308  40.6403  40.6427  40.6490  40.6498  40.6501  40.6584  40.6598
    40.6611  40.6864  40.6928  40.6930  40.6939  40.7011  40.7027  40.7088
    40.7096  40.7103  40.7249  40.7270  40.7628  40.7650  40.8078  40.8107
    40.8459  40.8925  40.8930  40.9030  40.9586  40.9728  41.0109  41.0132
    41.0223  41.0346  41.0888  41.1167  41.1466  41.1643  41.1681  41.2231
    41.2345  41.2355  41.2384  41.2491  41.2504  41.2574  41.2811  41.3068
    41.3084  41.3477  41.3488  41.3511  41.3667  41.3851  41.4905  41.4917
    41.4958  41.5138  41.5253  41.5266  41.5553  41.5879  41.5887  41.5900
    41.6777  41.6791  41.6907  41.6918  41.7010  41.7086  41.7138  41.7205
    41.7529  41.7707  41.7709  41.7792  41.8033  41.8037  41.8358  41.9382
    41.9849  41.9861  42.0205  42.0265  42.0270  42.0510  42.0612  42.0628
    42.2110  42.2426  42.2432  42.2837  42.2841  42.3516  42.3519  42.3602
    42.3629  42.4001  42.4063  42.4066  42.4134  42.4266  42.4266  42.4433
    42.4434  42.4534  42.4660  42.4856  42.4858  42.4887  42.4992  42.4997
    42.5705  42.5845  42.5866  42.6053  42.7133  42.7934  42.8530  42.8531
    42.8728  42.8739  42.9296  42.9584  42.9602  42.9604  43.0328  43.0330
    43.1359  43.1467  43.1469  43.1829  43.1837  43.2196  43.2361  43.2370
    43.2416  43.2427  43.2574  43.2577  43.2607  43.2716  43.2721  43.2789
    43.3277  43.3304  43.4094  43.4524  43.4588  43.4816  43.4827  43.4831
    43.5314  43.5401  43.5414  43.5786  43.6109  43.6642  43.6814  43.6848
    43.7642  43.8425  43.8426  43.9079  43.9719  43.9860  43.9862  44.0099
    44.0254  44.0402  44.0588  44.0598  44.0689  44.0702  44.0821  44.1051
    44.1053  44.1214  44.1218  44.1236  44.1581  44.1611  44.1613  44.1674
    44.1964  44.1967  44.2092  44.2339  44.2419  44.2427  44.2513  44.2622
    44.2623  44.3197  44.3244  44.3725  44.3741  44.3777  44.3847  44.3851
    44.3953  44.3959  44.4460  44.4478  44.4731  44.6526  44.6609  44.6614
    44.6781  44.7266  44.7274  44.7793  44.8520  44.8651  44.8656  44.8932
    44.8936  44.9358  44.9514  44.9523  44.9541  44.9798  44.9807  45.0026
    45.0031  45.0064  45.0702  45.0705  45.0962  45.0965  45.1182  45.1306
    45.1369  45.1371  45.1396  45.1470  45.1778  45.1779  45.1868  45.1878
    45.1916  45.1917  45.2765  45.2768  45.2855  45.3168  45.3171  45.3231
    45.3614  45.3931  45.3934  45.4174  45.4177  45.4193  45.4441  45.4453
    45.4455  45.4789  45.4790  45.4841  45.4844  45.4850  45.4977  45.5037
    45.5039  45.5131  45.5279  45.5283  45.5315  45.5462  45.5464  45.6283
    45.6325  45.6330  45.8137  45.8653  45.8664  45.8958  45.8962  45.8974
    45.9741  45.9779  46.0332  46.0390  46.0527  46.0528  46.0547  46.0592
    46.0628  46.0632  46.0728  46.0764  46.0820  46.0859  46.0877  46.1253
    46.1285  46.1294  46.1458  46.1646  46.1661  46.1944  46.2014  46.2463
    46.4656  46.4661  46.5379  46.5383  46.5539  46.5634  46.5658  46.5660
    46.5736  46.5994  46.5996  46.6140  46.6171  46.6181  46.6184  46.6269
    46.6354  46.6358  46.6661  46.6677  46.6678  46.6960  46.6962  46.7274
    46.8128  46.8298  46.8303  46.9312  46.9334  46.9835  47.1871  47.1876
    47.1891  47.2329  47.2336  47.2433  47.2884  47.3509  47.3521  47.3524
    47.4027  47.4212  47.4216  47.4240  47.4468  47.4472  47.4517  47.4885
    47.5007  47.5014  47.5226  47.6394  48.0107  48.0107  48.0616  48.0731
    48.0732  48.1642  48.1975  48.1976  48.2136  48.2786  48.2798  48.3188
    48.3189  48.3194  48.3299  48.3593  48.3593  48.3685  48.3879  48.3886
    48.4054  48.4112  48.4237  48.4547  48.4551  48.5199  48.5201  48.5405
    48.5410  48.5580  48.5606  48.5687  48.5689  48.5705  48.5860  48.6602
    48.7058  48.7255  48.7261  48.7754  48.7918  48.7926  48.8183  48.8657
    48.8657  48.9306  48.9308  48.9423  48.9425  48.9529  48.9752  48.9754
    48.9754  48.9760  48.9774  48.9778  48.9973  49.0213  49.0230  49.0231
    49.0402  49.0403  49.0957  49.0959  49.1006  49.1141  49.1255  49.1262
    49.1593  49.1594  49.1921  49.1960  49.1963  49.2271  49.2385  49.2387
    49.2393  49.2628  49.2634  49.2696  49.2699  49.2773  49.3064  49.3595
    49.3603  49.3603  49.3703  49.3946  49.3948  49.4169  49.4226  49.4229
    49.5184  49.5696  49.5846  49.5848  49.5913  49.5915  49.5969  49.6150
    49.6152  49.6232  49.6557  49.6856  49.6859  49.7538  49.7545  49.7726
    49.7731  49.8093  49.8137  49.8159  49.8321  49.8757  49.8771  49.8816
    50.0243  50.0370  50.0373  50.0695  50.0699  50.1165  50.1443  50.2052
    50.2352  50.2359  50.2640  50.2641  50.2707  50.2709  50.2859  50.3035
    50.3037  50.3070  50.3304  50.3331  50.3334  50.3795  50.3796  50.3919
    50.3934  50.4056  50.4131  50.4134  50.4213  50.4215  50.4312  50.4401
    50.4402  50.4636  50.4637  50.4779  50.5493  50.5494  50.5553  50.5685
    50.5692  50.6191  50.6457  50.6566  50.6576  50.6833  50.6835  50.6871
    50.7064  50.7065  50.7906  50.7922  50.7931  50.8030  50.8227  50.8261
    50.8530  50.8615  50.8644  50.8746  50.8771  50.8785  50.8856  50.8938
    50.9233  50.9244  50.9370  50.9705  50.9840  50.9856  51.0389  51.0803
    51.1797  51.1861  51.1868  51.2851  51.2864  51.3308  51.3914  51.3916
    51.3921  51.3952  51.4217  51.4223  51.4448  51.4449  51.4567  51.4820
    51.4827  51.4829  51.4877  51.4900  51.4902  51.5021  51.5027  51.5601
    51.5602  51.6228  51.6267  51.6269  51.6342  51.6562  51.6611  51.6613
    51.6627  51.6803  51.6808  51.7042  51.7165  51.7172  51.7176  51.7317
    51.7342  51.7350  51.7554  51.7560  51.7596  51.7601  51.8079  51.8689
    51.8749  51.8991  51.8997  51.9040  51.9041  51.9527  51.9976  51.9983
    52.0410  52.3744  52.3745  52.4148  52.4335  52.4342  52.4736  52.4740
    52.5330  52.5377  52.5495  52.5498  52.6060  52.6130  52.6134  52.6333
    52.6333  52.6352  52.6720  52.6723  52.6751  52.7785  52.8318  52.8326
    52.8881  52.8882  52.8961  52.9114  52.9118  52.9202  52.9375  52.9385
    52.9394  52.9562  52.9569  52.9823  52.9904  52.9905  52.9955  53.0954
    53.0957  53.1888  53.2422  53.5977  53.5987  53.6673  53.6685  53.6990
    53.6996  53.7116  53.7170  53.7183  53.7191  53.7233  53.7375  53.7379
    53.7452  53.7530  53.7534  53.7782  53.7819  53.7896  53.7897  53.7958
    53.7963  53.8629  53.8884  53.8887  53.9689  54.0446  54.0448  54.0449
    54.1268  54.1298  54.1480  54.1487  54.1640  54.1641  54.1808  54.1815
    54.2068  54.2168  54.2169  54.2227  54.2623  54.2623  54.2860  54.3057
    54.3459  54.3463  54.3521  54.3753  54.3754  54.3805  54.4079  54.4080
    54.4163  54.4393  54.4395  54.4511  54.4685  54.4687  54.4926  54.4986
    54.5122  54.5123  54.5187  54.5188  54.5221  54.5390  54.5467  54.5468
    54.5890  54.5898  54.6204  54.6901  54.6903  54.7167  54.7168  54.7177
    54.7232  54.7249  54.7250  54.7683  54.7684  54.7815  54.7970  54.8017
    54.8022  54.8114  54.8116  54.8590  54.8603  54.8608  54.8691  54.8694
    54.8908  54.8943  54.9189  54.9191  54.9820  54.9825  55.0369  55.0374
    55.0695  55.0735  55.0737  55.0786  55.1907  55.1917  55.1918  55.2633
    55.2636  55.2764  55.2927  55.2927  55.3424  55.3479  55.3583  55.3583
    55.4312  55.4313  55.4449  55.4609  55.4899  55.4901  55.5253  55.5439
    55.5439  55.5469  55.5470  55.6796  55.6916  55.6918  55.6955  55.7818
    55.7862  55.7873  55.8750  55.9046  55.9050  55.9206  55.9209  55.9374
    56.0010  56.0203  56.0208  56.0919  56.0922  56.1051  56.1057  56.1066
    56.1218  56.1238  56.1240  56.1273  56.1759  56.1770  56.1771  56.1774
    56.1825  56.1833  56.4198  56.4202  56.4733  56.6062  56.6064  56.6102
    56.6336  56.6351  56.6360  56.6360  56.6532  56.6535  56.6715  56.6758
    56.6764  56.6811  56.6889  56.7028  56.7030  56.7063  56.7332  56.7336
    56.7402  56.7804  56.7805  56.7952  56.7997  56.8004  56.8026  56.8134
    56.8152  56.8182  56.8214  56.8351  56.8367  56.8422  56.8442  56.8547
    56.8549  56.8590  56.8606  56.8615  56.8681  56.8739  56.8740  56.8768
    56.8778  56.8819  56.8875  56.8892  56.8945  56.8955  56.9070  56.9076
    56.9194  56.9332  56.9510  56.9517  56.9735  57.0151  57.0448  57.0454
    57.1739  57.1747  57.2753  57.2974  57.2980  57.3005  57.3647  57.3721
    57.3722  57.3746  57.3770  57.3773  57.4081  57.4571  57.4617  57.4619
    57.4742  57.4745  57.5170  57.6673  57.6676  57.7089  57.7523  57.7534

     occupation numbers 
     1.0000   1.0000   1.0000   1.0000   1.0000   1.0000   1.0000   1.0000
     1.0000   1.0000   1.0000   1.0000   1.0000   1.0000   1.0000   1.0000
     1.0000   1.0000   1.0000   1.0000   1.0000   1.0000   1.0000   1.0000
     1.0000   1.0000   1.0000   1.0000   1.0000   1.0000   1.0000   1.0000
     1.0000   1.0000   1.0000   1.0000   1.0000   1.0000   1.0000   1.0000
     1.0000   1.0000   1.0000   1.0000   1.0000   1.0000   1.0000   1.0000
     1.0000   1.0000   1.0000   1.0000   1.0000   1.0000   1.0000   1.0000
     1.0000   1.0000   1.0000   1.0000   1.0000   1.0000   1.0000   1.0000
     1.0000   1.0000   1.0000   1.0000   1.0000   1.0000   1.0000   1.0000
     1.0000   1.0000   1.0000   1.0000   1.0000   1.0000   1.0000   1.0000
     1.0000   1.0000   1.0000   1.0000   1.0000   1.0000   1.0000   1.0000
     1.0000   1.0000   1.0000   1.0000   1.0000   1.0000   1.0000   1.0000
     1.0000   1.0000   1.0000   1.0000   1.0000   1.0000   1.0000   1.0000
     1.0000   1.0000   1.0000   1.0000   1.0000   1.0000   1.0000   1.0000
     1.0000   1.0000   1.0000   1.0000   1.0000   1.0000   1.0000   1.0000
     1.0000   1.0000   1.0000   1.0000   1.0000   1.0000   1.0000   1.0000
     1.0000   1.0000   1.0000   1.0000   1.0000   1.0000   1.0000   1.0000
     1.0000   1.0000   1.0000   1.0000   1.0000   1.0000   1.0000   1.0000
     1.0000   1.0000   1.0000   1.0000   1.0000   1.0000   1.0000   1.0000
     1.0000   1.0000   1.0000   1.0000   1.0000   1.0000   1.0000   1.0000
     1.0000   1.0000   1.0000   1.0000   1.0000   1.0000   1.0000   1.0000
     1.0000   1.0000   1.0000   1.0000   1.0000   1.0000   1.0000   1.0000
     1.0000   1.0000   1.0000   1.0000   1.0000   1.0000   1.0000   1.0000
     1.0000   1.0000   1.0000   1.0000   1.0000   1.0000   1.0000   1.0000
     1.0000   1.0000   1.0000   1.0000   1.0000   1.0000   1.0000   1.0000
     1.0000   1.0000   1.0000   1.0000   1.0000   1.0000   1.0000   1.0000
     1.0000   1.0000   1.0000   1.0000   1.0000   1.0000   1.0000   1.0000
     1.0000   1.0000   1.0000   1.0000   1.0000   1.0000   1.0000   1.0000
     1.0000   1.0000   1.0000   1.0000   1.0000   1.0000   1.0000   1.0000
     1.0000   1.0000   1.0000   1.0000   1.0000   1.0000   1.0000   1.0000
     1.0000   1.0000   1.0000   1.0000   1.0000   1.0000   1.0000   1.0000
     1.0000   1.0000   1.0000   1.0000   1.0000   1.0000   1.0000   1.0000
     1.0000   1.0000   1.0000   1.0000   1.0000   1.0000   1.0000   1.0000
     1.0000   1.0000   1.0000   1.0000   1.0000   1.0000   1.0000   1.0000
     1.0000   1.0000   1.0000   1.0000   1.0000   1.0000   1.0000   1.0000
     1.0000   1.0000   1.0000   1.0000   1.0000   1.0000   1.0000   1.0000
     1.0000   1.0000   1.0000   1.0000   1.0000   1.0000   1.0000   1.0000
     1.0000   1.0000   1.0000   1.0000   1.0000   1.0000   1.0000   1.0000
     1.0000   1.0000   1.0000   1.0000   1.0000   1.0000   1.0000   1.0000
     1.0000   1.0000   1.0000   1.0000   1.0000   1.0000   1.0000   1.0000
     1.0000   1.0000   1.0000   1.0000   1.0000   1.0000   1.0000   1.0000
     1.0000   1.0000   1.0000   1.0000   1.0000   1.0000   1.0000   1.0000
     1.0000   1.0000   1.0000   1.0000   1.0000   1.0000   1.0000   1.0000
     1.0000   1.0000   1.0000   1.0000   1.0000   1.0000   1.0000   1.0000
     1.0000   1.0000   1.0000   1.0000   1.0000   1.0000   1.0000   1.0000
     1.0000   1.0000   1.0000   1.0000   1.0000   1.0000   1.0000   1.0000
     1.0000   1.0000   1.0000   1.0000   1.0000   1.0000   1.0000   1.0000
     1.0000   1.0000   1.0000   1.0000   1.0000   1.0000   1.0000   1.0000
     1.0000   1.0000   1.0000   1.0000   1.0000   1.0000   1.0000   1.0000
     1.0000   1.0000   1.0000   1.0000   1.0000   1.0000   1.0000   1.0000
     1.0000   1.0000   1.0000   1.0000   1.0000   1.0000   1.0000   1.0000
     1.0000   1.0000   1.0000   1.0000   1.0000   1.0000   1.0000   1.0000
     1.0000   1.0000   1.0000   1.0000   1.0000   1.0000   1.0000   1.0000
     1.0000   1.0000   1.0000   1.0000   1.0000   1.0000   1.0000   1.0000
     1.0000   1.0000   1.0000   1.0000   1.0000   1.0000   1.0000   1.0000
     1.0000   1.0000   1.0000   1.0000   1.0000   1.0000   1.0000   1.0000
     1.0000   1.0000   1.0000   1.0000   1.0000   1.0000   1.0000   1.0000
     1.0000   1.0000   1.0000   1.0000   1.0000   1.0000   1.0000   1.0000
     1.0000   1.0000   1.0000   1.0000   1.0000   1.0000   1.0000   1.0000
     1.0000   1.0000   1.0000   1.0000   1.0000   1.0000   1.0000   1.0000
     1.0000   1.0000   1.0000   1.0000   1.0000   1.0000   1.0000   1.0000
     1.0000   1.0000   1.0000   1.0000   1.0000   1.0000   1.0000   1.0000
     1.0000   1.0000   1.0000   1.0000   1.0000   1.0000   1.0000   1.0000
     1.0000   1.0000   1.0000   1.0000   1.0000   1.0000   1.0000   1.0000
     1.0000   1.0000   1.0000   1.0000   1.0000   1.0000   1.0000   1.0000
     1.0000   1.0000   1.0000   1.0000   1.0000   1.0000   1.0000   1.0000
     1.0000   1.0000   1.0000   1.0000   1.0000   1.0000   1.0000   1.0000
     1.0000   1.0000   1.0000   1.0000   1.0000   1.0000   1.0000   1.0000
     1.0000   1.0000   1.0000   1.0000   1.0000   1.0000   1.0000   1.0000
     1.0000   1.0000   1.0000   1.0000   1.0000   1.0000   1.0000   1.0000
     1.0000   1.0000   1.0000   1.0000   1.0000   1.0000   1.0000   1.0000
     1.0000   1.0000   1.0000   1.0000   1.0000   1.0000   1.0000   1.0000
     1.0000   1.0000   1.0000   1.0000   1.0000   1.0000   1.0000   1.0000
     1.0000   1.0000   1.0000   1.0000   1.0000   1.0000   1.0000   1.0000
     1.0000   1.0000   1.0000   1.0000   1.0000   1.0000   1.0000   1.0000
     1.0000   1.0000   1.0000   1.0000   1.0000   1.0000   1.0000   1.0000
     1.0000   1.0000   1.0000   1.0000   1.0000   1.0000   1.0000   1.0000
     1.0000   1.0000   1.0000   1.0000   1.0000   1.0000   1.0000   1.0000
     1.0000   1.0000   1.0000   1.0000   1.0000   1.0000   1.0000   1.0000
     1.0000   1.0000   1.0000   1.0000   1.0000   1.0000   1.0000   1.0000
     1.0000   1.0000   1.0000   1.0000   1.0000   1.0000   1.0000   1.0000
     1.0000   1.0000   1.0000   1.0000   1.0000   1.0000   1.0000   1.0000
     1.0000   1.0000   1.0000   1.0000   1.0000   1.0000   1.0000   1.0000
     1.0000   1.0000   1.0000   1.0000   1.0000   1.0000   1.0000   1.0000
     1.0000   1.0000   1.0000   1.0000   1.0000   1.0000   1.0000   1.0000
     1.0000   1.0000   1.0000   1.0000   1.0000   1.0000   1.0000   1.0000
     1.0000   1.0000   1.0000   1.0000   1.0000   1.0000   1.0000   1.0000
     1.0000   1.0000   1.0000   1.0000   1.0000   1.0000   1.0000   1.0000
     1.0000   1.0000   1.0000   1.0000   1.0000   1.0000   1.0000   1.0000
     1.0000   1.0000   1.0000   1.0000   1.0000   1.0000   1.0000   1.0000
     1.0000   1.0000   1.0000   1.0000   1.0000   1.0000   1.0000   1.0000
     1.0000   1.0000   1.0000   1.0000   1.0000   1.0000   1.0000   1.0000
     1.0000   1.0000   1.0000   1.0000   1.0000   1.0000   1.0000   1.0000
     1.0000   1.0000   1.0000   1.0000   1.0000   1.0000   1.0000   1.0000
     1.0000   1.0000   1.0000   1.0000   1.0000   1.0000   1.0000   1.0000
     1.0000   1.0000   1.0000   1.0000   1.0000   1.0000   1.0000   1.0000
     1.0000   1.0000   1.0000   1.0000   1.0000   1.0000   1.0000   1.0000
     1.0000   1.0000   1.0000   1.0000   1.0000   1.0000   1.0000   1.0000
     1.0000   1.0000   1.0000   1.0000   1.0000   1.0000   1.0000   1.0000
     1.0000   1.0000   1.0000   1.0000   1.0000   1.0000   1.0000   1.0000
     1.0000   1.0000   1.0000   1.0000   1.0000   1.0000   1.0000   1.0000
     1.0000   1.0000   1.0000   1.0000   1.0000   1.0000   1.0000   1.0000
     1.0000   1.0000   1.0000   1.0000   1.0000   1.0000   1.0000   1.0000
     1.0000   1.0000   1.0000   1.0000   1.0000   1.0000   1.0000   1.0000
     1.0000   1.0000   1.0000   1.0000   1.0000   1.0000   1.0000   1.0000
     1.0000   1.0000   1.0000   1.0000   1.0000   1.0000   1.0000   1.0000
     1.0000   1.0000   1.0000   1.0000   1.0000   1.0000   1.0000   1.0000
     1.0000   1.0000   1.0000   1.0000   1.0000   1.0000   1.0000   1.0000
     1.0000   1.0000   1.0000   1.0000   1.0000   1.0000   1.0000   1.0000
     1.0000   1.0000   1.0000   1.0000   1.0000   1.0000   1.0000   1.0000
     1.0000   1.0000   1.0000   1.0000   1.0000   1.0000   1.0000   1.0000
     1.0000   1.0000   1.0000   1.0000   1.0000   1.0000   1.0000   1.0000
     1.0000   1.0000   1.0000   1.0000   1.0000   1.0000   1.0000   1.0000
     1.0000   1.0000   1.0000   1.0000   1.0000   1.0000   1.0000   1.0000
     1.0000   1.0000   1.0000   1.0000   1.0000   1.0000   1.0000   1.0000
     1.0000   1.0000   1.0000   1.0000   1.0000   1.0000   1.0000   1.0000
     1.0000   1.0000   1.0000   1.0000   1.0000   1.0000   1.0000   1.0000
     1.0000   1.0000   1.0000   1.0000   1.0000   1.0000   1.0000   1.0000
     1.0000   1.0000   1.0000   1.0000   1.0000   1.0000   1.0000   1.0000
     1.0000   1.0000   1.0000   1.0000   1.0000   1.0000   1.0000   1.0000
     1.0000   1.0000   1.0000   1.0000   1.0000   1.0000   1.0000   1.0000
     1.0000   1.0000   1.0000   1.0000   1.0000   1.0000   1.0000   1.0000
     1.0000   1.0000   1.0000   1.0000   1.0000   1.0000   1.0000   1.0000
     1.0000   1.0000   1.0000   1.0000   1.0000   1.0000   1.0000   1.0000
     1.0000   1.0000   1.0000   1.0000   1.0000   1.0000   1.0000   1.0000
     1.0000   1.0000   1.0000   1.0000   1.0000   1.0000   1.0000   1.0000
     1.0000   1.0000   1.0000   1.0000   1.0000   1.0000   1.0000   1.0000
     1.0000   1.0000   1.0000   1.0000   1.0000   1.0000   1.0000   1.0000
     1.0000   1.0000   1.0000   1.0000   1.0000   1.0000   1.0000   1.0000
     1.0000   1.0000   1.0000   1.0000   1.0000   1.0000   1.0000   1.0000
     1.0000   1.0000   1.0000   1.0000   1.0000   1.0000   1.0000   1.0000
     1.0000   1.0000   1.0000   1.0000   1.0000   1.0000   1.0000   1.0000
     1.0000   1.0000   1.0000   1.0000   1.0000   1.0000   1.0000   1.0000
     1.0000   1.0000   1.0000   1.0000   1.0000   1.0000   1.0000   1.0000
     1.0000   1.0000   1.0000   1.0000   1.0000   1.0000   1.0000   1.0000
     1.0000   1.0000   1.0000   1.0000   1.0000   1.0000   1.0000   1.0000
     1.0000   1.0000   1.0000   1.0000   1.0000   1.0000   1.0000   1.0000
     1.0000   1.0000   1.0000   1.0000   1.0000   1.0000   1.0000   1.0000
     1.0000   1.0000   1.0000   1.0000   1.0000   1.0000   1.0000   1.0000
     1.0000   1.0000   1.0000   1.0000   1.0000   1.0000   1.0000   1.0000
     1.0000   1.0000   1.0000   1.0000   1.0000   1.0000   1.0000   1.0000
     1.0000   1.0000   1.0000   1.0000   1.0000   1.0000   1.0000   1.0000
     1.0000   1.0000   1.0000   1.0000   1.0000   1.0000   1.0000   1.0000
     1.0000   1.0000   1.0000   1.0000   1.0000   1.0000   1.0000   1.0000
     1.0000   1.0000   1.0000   1.0000   1.0000   1.0000   1.0000   1.0000
     1.0000   1.0000   1.0000   1.0000   1.0000   1.0000   1.0000   1.0000
     1.0000   1.0000   1.0000   1.0000   1.0000   1.0000   1.0000   1.0000
     1.0000   1.0000   1.0000   1.0000   1.0000   1.0000   1.0000   1.0000
     1.0000   1.0000   1.0000   1.0000   1.0000   1.0000   1.0000   1.0000
     1.0000   1.0000   1.0000   1.0000   1.0000   1.0000   1.0000   1.0000
     1.0000   1.0000   1.0000   1.0000   1.0000   1.0000   1.0000   1.0000
     1.0000   1.0000   1.0000   1.0000   1.0000   1.0000   1.0000   1.0000
     1.0000   1.0000   1.0000   1.0000   1.0000   1.0000   1.0000   1.0000
     1.0000   1.0000   1.0000   1.0000   1.0000   1.0000   1.0000   1.0000
     1.0000   1.0000   1.0000   1.0000   1.0000   1.0000   1.0000   1.0000
     1.0000   1.0000   0.0000   0.0000   0.0000   0.0000   0.0000   0.0000
     0.0000   0.0000   0.0000   0.0000   0.0000   0.0000   0.0000   0.0000
     0.0000   0.0000   0.0000   0.0000   0.0000   0.0000   0.0000   0.0000
     0.0000   0.0000   0.0000   0.0000   0.0000   0.0000   0.0000   0.0000
     0.0000   0.0000   0.0000   0.0000   0.0000   0.0000   0.0000   0.0000
     0.0000   0.0000   0.0000   0.0000   0.0000   0.0000   0.0000   0.0000
     0.0000   0.0000   0.0000   0.0000   0.0000   0.0000   0.0000   0.0000
     0.0000   0.0000   0.0000   0.0000   0.0000   0.0000   0.0000   0.0000
     0.0000   0.0000   0.0000   0.0000   0.0000   0.0000   0.0000   0.0000
     0.0000   0.0000   0.0000   0.0000   0.0000   0.0000   0.0000   0.0000
     0.0000   0.0000   0.0000   0.0000   0.0000   0.0000   0.0000   0.0000
     0.0000   0.0000   0.0000   0.0000   0.0000   0.0000   0.0000   0.0000
     0.0000   0.0000   0.0000   0.0000   0.0000   0.0000   0.0000   0.0000
     0.0000   0.0000   0.0000   0.0000   0.0000   0.0000   0.0000   0.0000
     0.0000   0.0000   0.0000   0.0000   0.0000   0.0000   0.0000   0.0000
     0.0000   0.0000   0.0000   0.0000   0.0000   0.0000   0.0000   0.0000
     0.0000   0.0000   0.0000   0.0000   0.0000   0.0000   0.0000   0.0000
     0.0000   0.0000   0.0000   0.0000   0.0000   0.0000   0.0000   0.0000
     0.0000   0.0000   0.0000   0.0000   0.0000   0.0000   0.0000   0.0000
     0.0000   0.0000   0.0000   0.0000   0.0000   0.0000   0.0000   0.0000
     0.0000   0.0000   0.0000   0.0000   0.0000   0.0000   0.0000   0.0000
     0.0000   0.0000   0.0000   0.0000   0.0000   0.0000   0.0000   0.0000
     0.0000   0.0000   0.0000   0.0000   0.0000   0.0000   0.0000   0.0000
     0.0000   0.0000   0.0000   0.0000   0.0000   0.0000   0.0000   0.0000
     0.0000   0.0000   0.0000   0.0000   0.0000   0.0000   0.0000   0.0000
[...]
     0.0000   0.0000   0.0000   0.0000   0.0000   0.0000   0.0000   0.0000
     0.0000   0.0000   0.0000   0.0000   0.0000   0.0000   0.0000   0.0000
     0.0000   0.0000   0.0000   0.0000   0.0000   0.0000   0.0000   0.0000
     0.0000   0.0000   0.0000   0.0000   0.0000   0.0000   0.0000   0.0000
     0.0000   0.0000   0.0000   0.0000   0.0000   0.0000   0.0000   0.0000
     0.0000   0.0000   0.0000   0.0000   0.0000   0.0000   0.0000   0.0000
     0.0000   0.0000   0.0000   0.0000   0.0000   0.0000   0.0000   0.0000
     0.0000   0.0000   0.0000   0.0000   0.0000   0.0000   0.0000   0.0000
     0.0000   0.0000   0.0000   0.0000   0.0000   0.0000   0.0000   0.0000
     0.0000   0.0000   0.0000   0.0000   0.0000   0.0000   0.0000   0.0000
     0.0000   0.0000   0.0000   0.0000   0.0000   0.0000   0.0000   0.0000
     0.0000   0.0000   0.0000   0.0000   0.0000   0.0000   0.0000   0.0000
     0.0000   0.0000   0.0000   0.0000   0.0000   0.0000   0.0000   0.0000
     0.0000   0.0000   0.0000   0.0000   0.0000   0.0000   0.0000   0.0000
     0.0000   0.0000   0.0000   0.0000   0.0000   0.0000   0.0000   0.0000
     0.0000   0.0000   0.0000   0.0000   0.0000   0.0000   0.0000   0.0000
     0.0000   0.0000   0.0000   0.0000   0.0000   0.0000   0.0000   0.0000
     0.0000   0.0000   0.0000   0.0000   0.0000   0.0000   0.0000   0.0000
     0.0000   0.0000   0.0000   0.0000   0.0000   0.0000   0.0000   0.0000
     0.0000   0.0000   0.0000   0.0000   0.0000   0.0000   0.0000   0.0000
     0.0000   0.0000   0.0000   0.0000   0.0000   0.0000   0.0000   0.0000
     0.0000   0.0000   0.0000   0.0000   0.0000   0.0000   0.0000   0.0000
     0.0000   0.0000   0.0000   0.0000   0.0000   0.0000   0.0000   0.0000
     0.0000   0.0000   0.0000   0.0000   0.0000   0.0000   0.0000   0.0000
     0.0000   0.0000   0.0000   0.0000   0.0000   0.0000   0.0000   0.0000
     0.0000   0.0000   0.0000   0.0000   0.0000   0.0000   0.0000   0.0000
     0.0000   0.0000   0.0000   0.0000   0.0000   0.0000   0.0000   0.0000
     0.0000   0.0000   0.0000   0.0000   0.0000   0.0000   0.0000   0.0000
     0.0000   0.0000   0.0000   0.0000   0.0000   0.0000   0.0000   0.0000
     0.0000   0.0000   0.0000   0.0000   0.0000   0.0000   0.0000   0.0000
     0.0000   0.0000   0.0000   0.0000   0.0000   0.0000   0.0000   0.0000
     0.0000   0.0000   0.0000   0.0000   0.0000   0.0000   0.0000   0.0000
     0.0000   0.0000   0.0000   0.0000   0.0000   0.0000   0.0000   0.0000
     0.0000   0.0000   0.0000   0.0000   0.0000   0.0000   0.0000   0.0000
     0.0000   0.0000   0.0000   0.0000   0.0000   0.0000   0.0000   0.0000
     0.0000   0.0000   0.0000   0.0000   0.0000   0.0000   0.0000   0.0000
     0.0000   0.0000   0.0000   0.0000   0.0000   0.0000   0.0000   0.0000
     0.0000   0.0000   0.0000   0.0000   0.0000   0.0000   0.0000   0.0000
     0.0000   0.0000   0.0000   0.0000   0.0000   0.0000   0.0000   0.0000
     0.0000   0.0000   0.0000   0.0000   0.0000   0.0000   0.0000   0.0000
     0.0000   0.0000   0.0000   0.0000   0.0000   0.0000   0.0000   0.0000
     0.0000   0.0000   0.0000   0.0000   0.0000   0.0000   0.0000   0.0000
     0.0000   0.0000   0.0000   0.0000   0.0000   0.0000   0.0000   0.0000
     0.0000   0.0000   0.0000   0.0000   0.0000   0.0000   0.0000   0.0000
     0.0000   0.0000   0.0000   0.0000   0.0000   0.0000   0.0000   0.0000
     0.0000   0.0000   0.0000   0.0000   0.0000   0.0000   0.0000   0.0000
     0.0000   0.0000   0.0000   0.0000   0.0000   0.0000   0.0000   0.0000
     0.0000   0.0000   0.0000   0.0000   0.0000   0.0000   0.0000   0.0000
     0.0000   0.0000   0.0000   0.0000   0.0000   0.0000   0.0000   0.0000
     0.0000   0.0000   0.0000   0.0000   0.0000   0.0000   0.0000   0.0000
     0.0000   0.0000   0.0000   0.0000   0.0000   0.0000   0.0000   0.0000
     0.0000   0.0000   0.0000   0.0000   0.0000   0.0000   0.0000   0.0000
     0.0000   0.0000   0.0000   0.0000   0.0000   0.0000   0.0000   0.0000
     0.0000   0.0000   0.0000   0.0000   0.0000   0.0000   0.0000   0.0000
     0.0000   0.0000   0.0000   0.0000   0.0000   0.0000   0.0000   0.0000
     0.0000   0.0000   0.0000   0.0000   0.0000   0.0000   0.0000   0.0000
     0.0000   0.0000   0.0000   0.0000   0.0000   0.0000   0.0000   0.0000
     0.0000   0.0000   0.0000   0.0000   0.0000   0.0000   0.0000   0.0000
     0.0000   0.0000   0.0000   0.0000   0.0000   0.0000   0.0000   0.0000
     0.0000   0.0000   0.0000   0.0000   0.0000   0.0000   0.0000   0.0000
     0.0000   0.0000   0.0000   0.0000   0.0000   0.0000   0.0000   0.0000
     0.0000   0.0000   0.0000   0.0000   0.0000   0.0000   0.0000   0.0000
     0.0000   0.0000   0.0000   0.0000   0.0000   0.0000   0.0000   0.0000
     0.0000   0.0000   0.0000   0.0000   0.0000   0.0000   0.0000   0.0000
     0.0000   0.0000   0.0000   0.0000   0.0000   0.0000   0.0000   0.0000
     0.0000   0.0000   0.0000   0.0000   0.0000   0.0000   0.0000   0.0000
     0.0000   0.0000   0.0000   0.0000   0.0000   0.0000   0.0000   0.0000
     0.0000   0.0000   0.0000   0.0000   0.0000   0.0000   0.0000   0.0000
     0.0000   0.0000   0.0000   0.0000   0.0000   0.0000   0.0000   0.0000
     0.0000   0.0000   0.0000   0.0000   0.0000   0.0000   0.0000   0.0000
     0.0000   0.0000   0.0000   0.0000   0.0000   0.0000   0.0000   0.0000
     0.0000   0.0000   0.0000   0.0000   0.0000   0.0000   0.0000   0.0000
     0.0000   0.0000   0.0000   0.0000   0.0000   0.0000   0.0000   0.0000
     0.0000   0.0000   0.0000   0.0000   0.0000   0.0000   0.0000   0.0000
     0.0000   0.0000   0.0000   0.0000   0.0000   0.0000   0.0000   0.0000
     0.0000   0.0000   0.0000   0.0000   0.0000   0.0000   0.0000   0.0000
     0.0000   0.0000   0.0000   0.0000   0.0000   0.0000   0.0000   0.0000
     0.0000   0.0000   0.0000   0.0000   0.0000   0.0000   0.0000   0.0000
     0.0000   0.0000   0.0000   0.0000   0.0000   0.0000   0.0000   0.0000
     0.0000   0.0000   0.0000   0.0000   0.0000   0.0000   0.0000   0.0000
     0.0000   0.0000   0.0000   0.0000   0.0000   0.0000   0.0000   0.0000
     0.0000   0.0000   0.0000   0.0000   0.0000   0.0000   0.0000   0.0000
     0.0000   0.0000   0.0000   0.0000   0.0000   0.0000   0.0000   0.0000
     0.0000   0.0000   0.0000   0.0000   0.0000   0.0000   0.0000   0.0000
     0.0000   0.0000   0.0000   0.0000   0.0000   0.0000   0.0000   0.0000
     0.0000   0.0000   0.0000   0.0000   0.0000   0.0000   0.0000   0.0000
     0.0000   0.0000   0.0000   0.0000   0.0000   0.0000   0.0000   0.0000
     0.0000   0.0000   0.0000   0.0000   0.0000   0.0000   0.0000   0.0000
     0.0000   0.0000   0.0000   0.0000   0.0000   0.0000   0.0000   0.0000
     0.0000   0.0000   0.0000   0.0000   0.0000   0.0000   0.0000   0.0000
     0.0000   0.0000   0.0000   0.0000   0.0000   0.0000   0.0000   0.0000
     0.0000   0.0000   0.0000   0.0000   0.0000   0.0000   0.0000   0.0000
     0.0000   0.0000   0.0000   0.0000   0.0000   0.0000   0.0000   0.0000
     0.0000   0.0000   0.0000   0.0000   0.0000   0.0000   0.0000   0.0000
     0.0000   0.0000   0.0000   0.0000   0.0000   0.0000   0.0000   0.0000
     0.0000   0.0000   0.0000   0.0000   0.0000   0.0000   0.0000   0.0000
     0.0000   0.0000   0.0000   0.0000   0.0000   0.0000   0.0000   0.0000
     0.0000   0.0000   0.0000   0.0000   0.0000   0.0000   0.0000   0.0000
     0.0000   0.0000   0.0000   0.0000   0.0000   0.0000   0.0000   0.0000
     0.0000   0.0000   0.0000   0.0000   0.0000   0.0000   0.0000   0.0000
     0.0000   0.0000   0.0000   0.0000   0.0000   0.0000   0.0000   0.0000
     0.0000   0.0000   0.0000   0.0000   0.0000   0.0000   0.0000   0.0000
     0.0000   0.0000   0.0000   0.0000   0.0000   0.0000   0.0000   0.0000
     0.0000   0.0000   0.0000   0.0000   0.0000   0.0000   0.0000   0.0000
     0.0000   0.0000   0.0000   0.0000   0.0000   0.0000   0.0000   0.0000
     0.0000   0.0000   0.0000   0.0000   0.0000   0.0000   0.0000   0.0000
     0.0000   0.0000   0.0000   0.0000   0.0000   0.0000   0.0000   0.0000
     0.0000   0.0000   0.0000   0.0000   0.0000   0.0000   0.0000   0.0000
     0.0000   0.0000   0.0000   0.0000   0.0000   0.0000   0.0000   0.0000
     0.0000   0.0000   0.0000   0.0000   0.0000   0.0000   0.0000   0.0000
     0.0000   0.0000   0.0000   0.0000   0.0000   0.0000   0.0000   0.0000
     0.0000   0.0000   0.0000   0.0000   0.0000   0.0000   0.0000   0.0000
     0.0000   0.0000   0.0000   0.0000   0.0000   0.0000   0.0000   0.0000
     0.0000   0.0000   0.0000   0.0000   0.0000   0.0000   0.0000   0.0000
     0.0000   0.0000   0.0000   0.0000   0.0000   0.0000   0.0000   0.0000
     0.0000   0.0000   0.0000   0.0000   0.0000   0.0000   0.0000   0.0000
     0.0000   0.0000   0.0000   0.0000   0.0000   0.0000   0.0000   0.0000
     0.0000   0.0000   0.0000   0.0000   0.0000   0.0000   0.0000   0.0000
     0.0000   0.0000   0.0000   0.0000   0.0000   0.0000   0.0000   0.0000
     0.0000   0.0000   0.0000   0.0000   0.0000   0.0000   0.0000   0.0000
     0.0000   0.0000   0.0000   0.0000   0.0000   0.0000   0.0000   0.0000
     0.0000   0.0000   0.0000   0.0000   0.0000   0.0000   0.0000   0.0000
     0.0000   0.0000   0.0000   0.0000   0.0000   0.0000   0.0000   0.0000
     0.0000   0.0000   0.0000   0.0000   0.0000   0.0000   0.0000   0.0000
     0.0000   0.0000   0.0000   0.0000   0.0000   0.0000   0.0000   0.0000
     0.0000   0.0000   0.0000   0.0000   0.0000   0.0000   0.0000   0.0000
     0.0000   0.0000   0.0000   0.0000   0.0000   0.0000   0.0000   0.0000
     0.0000   0.0000   0.0000   0.0000   0.0000   0.0000   0.0000   0.0000
     0.0000   0.0000   0.0000   0.0000   0.0000   0.0000   0.0000   0.0000
     0.0000   0.0000   0.0000   0.0000   0.0000   0.0000   0.0000   0.0000
     0.0000   0.0000   0.0000   0.0000   0.0000   0.0000   0.0000   0.0000
     0.0000   0.0000   0.0000   0.0000   0.0000   0.0000   0.0000   0.0000
     0.0000   0.0000   0.0000   0.0000   0.0000   0.0000   0.0000   0.0000
     0.0000   0.0000   0.0000   0.0000   0.0000   0.0000   0.0000   0.0000
     0.0000   0.0000   0.0000   0.0000   0.0000   0.0000   0.0000   0.0000
     0.0000   0.0000   0.0000   0.0000   0.0000   0.0000   0.0000   0.0000
     0.0000   0.0000   0.0000   0.0000   0.0000   0.0000   0.0000   0.0000
     0.0000   0.0000   0.0000   0.0000   0.0000   0.0000   0.0000   0.0000
     0.0000   0.0000   0.0000   0.0000   0.0000   0.0000   0.0000   0.0000
     0.0000   0.0000   0.0000   0.0000   0.0000   0.0000   0.0000   0.0000
     0.0000   0.0000   0.0000   0.0000   0.0000   0.0000   0.0000   0.0000
     0.0000   0.0000   0.0000   0.0000   0.0000   0.0000   0.0000   0.0000
     0.0000   0.0000   0.0000   0.0000   0.0000   0.0000   0.0000   0.0000
     0.0000   0.0000   0.0000   0.0000   0.0000   0.0000   0.0000   0.0000
     0.0000   0.0000   0.0000   0.0000   0.0000   0.0000   0.0000   0.0000
     0.0000   0.0000   0.0000   0.0000   0.0000   0.0000   0.0000   0.0000
     0.0000   0.0000   0.0000   0.0000   0.0000   0.0000   0.0000   0.0000
     0.0000   0.0000   0.0000   0.0000   0.0000   0.0000   0.0000   0.0000
     0.0000   0.0000   0.0000   0.0000   0.0000   0.0000   0.0000   0.0000
     0.0000   0.0000   0.0000   0.0000   0.0000   0.0000   0.0000   0.0000
     0.0000   0.0000   0.0000   0.0000   0.0000   0.0000   0.0000   0.0000
     0.0000   0.0000   0.0000   0.0000   0.0000   0.0000   0.0000   0.0000
     0.0000   0.0000   0.0000   0.0000   0.0000   0.0000   0.0000   0.0000
     0.0000   0.0000   0.0000   0.0000   0.0000   0.0000   0.0000   0.0000
     0.0000   0.0000   0.0000   0.0000   0.0000   0.0000   0.0000   0.0000
     0.0000   0.0000   0.0000   0.0000   0.0000   0.0000   0.0000   0.0000
     0.0000   0.0000   0.0000   0.0000   0.0000   0.0000   0.0000   0.0000
     0.0000   0.0000   0.0000   0.0000   0.0000   0.0000   0.0000   0.0000
     0.0000   0.0000   0.0000   0.0000   0.0000   0.0000   0.0000   0.0000
     0.0000   0.0000   0.0000   0.0000   0.0000   0.0000   0.0000   0.0000
     0.0000   0.0000   0.0000   0.0000   0.0000   0.0000   0.0000   0.0000
     0.0000   0.0000   0.0000   0.0000   0.0000   0.0000   0.0000   0.0000
     0.0000   0.0000   0.0000   0.0000   0.0000   0.0000   0.0000   0.0000
     0.0000   0.0000   0.0000   0.0000   0.0000   0.0000   0.0000   0.0000
     0.0000   0.0000   0.0000   0.0000   0.0000   0.0000   0.0000   0.0000
     0.0000   0.0000   0.0000   0.0000   0.0000   0.0000   0.0000   0.0000
     0.0000   0.0000   0.0000   0.0000   0.0000   0.0000   0.0000   0.0000
     0.0000   0.0000   0.0000   0.0000   0.0000   0.0000   0.0000   0.0000
     0.0000   0.0000   0.0000   0.0000   0.0000   0.0000   0.0000   0.0000
     0.0000   0.0000   0.0000   0.0000   0.0000   0.0000   0.0000   0.0000
     0.0000   0.0000   0.0000   0.0000   0.0000   0.0000   0.0000   0.0000
     0.0000   0.0000   0.0000   0.0000   0.0000   0.0000   0.0000   0.0000
     0.0000   0.0000   0.0000   0.0000   0.0000   0.0000   0.0000   0.0000
     0.0000   0.0000   0.0000   0.0000   0.0000   0.0000   0.0000   0.0000
     0.0000   0.0000   0.0000   0.0000   0.0000   0.0000   0.0000   0.0000
     0.0000   0.0000   0.0000   0.0000   0.0000   0.0000   0.0000   0.0000
     0.0000   0.0000   0.0000   0.0000   0.0000   0.0000   0.0000   0.0000
     0.0000   0.0000   0.0000   0.0000   0.0000   0.0000   0.0000   0.0000
     0.0000   0.0000   0.0000   0.0000   0.0000   0.0000   0.0000   0.0000
     0.0000   0.0000   0.0000   0.0000   0.0000   0.0000   0.0000   0.0000
     0.0000   0.0000   0.0000   0.0000   0.0000   0.0000   0.0000   0.0000
     0.0000   0.0000   0.0000   0.0000   0.0000   0.0000   0.0000   0.0000
     0.0000   0.0000   0.0000   0.0000   0.0000   0.0000   0.0000   0.0000
     0.0000   0.0000   0.0000   0.0000   0.0000   0.0000   0.0000   0.0000
     0.0000   0.0000   0.0000   0.0000   0.0000   0.0000   0.0000   0.0000
     0.0000   0.0000   0.0000   0.0000   0.0000   0.0000   0.0000   0.0000
     0.0000   0.0000   0.0000   0.0000   0.0000   0.0000   0.0000   0.0000
     0.0000   0.0000   0.0000   0.0000   0.0000   0.0000   0.0000   0.0000
     0.0000   0.0000   0.0000   0.0000   0.0000   0.0000   0.0000   0.0000
     0.0000   0.0000   0.0000   0.0000   0.0000   0.0000   0.0000   0.0000
     0.0000   0.0000   0.0000   0.0000   0.0000   0.0000   0.0000   0.0000
     0.0000   0.0000   0.0000   0.0000   0.0000   0.0000   0.0000   0.0000
     0.0000   0.0000   0.0000   0.0000   0.0000   0.0000   0.0000   0.0000
     0.0000   0.0000   0.0000   0.0000   0.0000   0.0000   0.0000   0.0000
     0.0000   0.0000   0.0000   0.0000   0.0000   0.0000   0.0000   0.0000
     0.0000   0.0000   0.0000   0.0000   0.0000   0.0000   0.0000   0.0000
     0.0000   0.0000   0.0000   0.0000   0.0000   0.0000   0.0000   0.0000
     0.0000   0.0000   0.0000   0.0000   0.0000   0.0000   0.0000   0.0000
     0.0000   0.0000   0.0000   0.0000   0.0000   0.0000   0.0000   0.0000
     0.0000   0.0000   0.0000   0.0000   0.0000   0.0000   0.0000   0.0000
     0.0000   0.0000   0.0000   0.0000   0.0000   0.0000   0.0000   0.0000
     0.0000   0.0000   0.0000   0.0000   0.0000   0.0000   0.0000   0.0000
     0.0000   0.0000   0.0000   0.0000   0.0000   0.0000   0.0000   0.0000
     0.0000   0.0000   0.0000   0.0000   0.0000   0.0000   0.0000   0.0000
     0.0000   0.0000   0.0000   0.0000   0.0000   0.0000   0.0000   0.0000
     0.0000   0.0000   0.0000   0.0000   0.0000   0.0000   0.0000   0.0000
     0.0000   0.0000   0.0000   0.0000   0.0000   0.0000   0.0000   0.0000
     0.0000   0.0000   0.0000   0.0000   0.0000   0.0000   0.0000   0.0000
     0.0000   0.0000   0.0000   0.0000   0.0000   0.0000   0.0000   0.0000
     0.0000   0.0000   0.0000   0.0000   0.0000   0.0000   0.0000   0.0000
     0.0000   0.0000   0.0000   0.0000   0.0000   0.0000   0.0000   0.0000
     0.0000   0.0000   0.0000   0.0000   0.0000   0.0000   0.0000   0.0000
     0.0000   0.0000   0.0000   0.0000   0.0000   0.0000   0.0000   0.0000
     0.0000   0.0000   0.0000   0.0000   0.0000   0.0000   0.0000   0.0000
     0.0000   0.0000   0.0000   0.0000   0.0000   0.0000   0.0000   0.0000
     0.0000   0.0000   0.0000   0.0000   0.0000   0.0000   0.0000   0.0000
     0.0000   0.0000   0.0000   0.0000   0.0000   0.0000   0.0000   0.0000
     0.0000   0.0000   0.0000   0.0000   0.0000   0.0000   0.0000   0.0000

     the Fermi energy is    10.1458 ev
     (compare with:     9.4787 eV, computed in scf)

     Writing all to output data dir temp/pwscf.save/
 
     init_run     :      4.53s CPU      8.20s WALL (       1 calls)
     electrons    :   9727.30s CPU   9823.50s WALL (       1 calls)

     Called by init_run:
     aceinit0     :      2.18s CPU      5.77s WALL (       1 calls)
     wfcinit      :      0.00s CPU      0.01s WALL (       1 calls)
     wfcinit:atom :      0.14s CPU      0.24s WALL (       4 calls)
     wfcinit:wfcr :    108.33s CPU    110.08s WALL (       4 calls)
     potinit      :      0.53s CPU      0.56s WALL (       1 calls)
     hinit0       :      1.68s CPU      1.71s WALL (       1 calls)

     Called by electrons:
     c_bands      :   6178.17s CPU   6245.21s WALL (       2 calls)
     sum_band     :      3.32s CPU      7.88s WALL (       1 calls)
     v_of_rho     :      0.98s CPU      1.01s WALL (       2 calls)
     v_h          :      0.02s CPU      0.02s WALL (       2 calls)
     v_xc         :      0.96s CPU      0.99s WALL (       2 calls)

     Called by c_bands:
     init_us_2    :      0.28s CPU      0.33s WALL (       6 calls)
     init_us_2:cp :      0.28s CPU      0.33s WALL (       6 calls)
     regterg      :   6037.79s CPU   6089.61s WALL (       6 calls)

     Called by sum_band:
     sum_band:wei :      0.00s CPU      0.00s WALL (       1 calls)
     sum_band:loo :      2.05s CPU      6.60s WALL (       1 calls)
     sum_band:buf :      0.00s CPU      4.55s WALL (       2 calls)
     sum_band:ini :      0.08s CPU      0.08s WALL (       2 calls)

     Called by *egterg:
     rdiaghg      :   4633.48s CPU   4647.52s WALL (     112 calls)
     regterg:over :    188.89s CPU    193.22s WALL (     108 calls)
     regterg:upda :     64.44s CPU     68.69s WALL (     108 calls)
     regterg:last :    150.04s CPU    159.64s WALL (      60 calls)
     h_psi        :    978.05s CPU    988.59s WALL (     118 calls)
     g_psi        :      2.23s CPU      2.23s WALL (     108 calls)

     Called by h_psi:
     h_psi:calbec :    138.18s CPU    138.71s WALL (     118 calls)
     vloc_psi     :    397.07s CPU    399.74s WALL (     118 calls)
     add_vuspsi   :    134.30s CPU    135.31s WALL (     118 calls)

     General routines
     calbec       :    250.29s CPU    251.07s WALL (     238 calls)
     fft          :      0.13s CPU      0.16s WALL (      25 calls)
     ffts         :      0.04s CPU      0.04s WALL (       1 calls)
     fftw         :    306.95s CPU    308.99s WALL (  183816 calls)
     fftc         :    868.44s CPU    874.31s WALL (  933750 calls)
     fftcw        :      3.05s CPU      3.17s WALL (    4134 calls)
     davcio       :      0.01s CPU     27.30s WALL (      16 calls)
 
     Parallel routines

     EXX routines
     exx_grid     :      0.00s CPU      0.00s WALL (       1 calls)
     exxinit      :     26.10s CPU     27.94s WALL (       1 calls)
     vexx         :   3507.91s CPU   3525.67s WALL (       2 calls)
     matcalc      :    112.47s CPU    112.78s WALL (     120 calls)
     aceupdate    :      5.76s CPU      5.91s WALL (       2 calls)
     vexxace      :    304.36s CPU    310.37s WALL (     118 calls)
     aceinit      :   3519.11s CPU   3537.07s WALL (       2 calls)
 
     PWSCF        :      2h42m CPU      2h44m WALL

 
   This run was terminated on:  12:13:56  14Dec2023            

=------------------------------------------------------------------------------=
   JOB DONE.
=------------------------------------------------------------------------------=
