
     Program PWSCF v.7.2 starts on 14Dec2023 at  0:49:15 

     This program is part of the open-source Quantum ESPRESSO suite
     for quantum simulation of materials; please cite
         "P. Giannozzi et al., J. Phys.:Condens. Matter 21 395502 (2009);
         "P. Giannozzi et al., J. Phys.:Condens. Matter 29 465901 (2017);
         "P. Giannozzi et al., J. Chem. Phys. 152 154105 (2020);
          URL http://www.quantum-espresso.org", 
     in publications or presentations arising from this work. More details at
     http://www.quantum-espresso.org/quote

     Parallel version (MPI), running on   128 processors

     MPI processes distributed on     8 nodes
     185879 MiB available memory on the printing compute node when the environment starts
 
     Reading input from scf.in
Warning: card &CELL ignored
Warning: card / ignored

     Current dimensions of program PWSCF are:
     Max number of different atomic species (ntypx) = 10
     Max number of k-points (npk) =  40000
     Max angular momentum in pseudopotentials (lmaxx) =  4

     IMPORTANT: XC functional enforced from input :
     Exchange-correlation= HSE
                           (   1   4  12   4   0   0   0)
     EXX-fraction              =        0.25
     Any further DFT definition will be discarded
     Please, verify this is what you really want

     EXX fraction changed:   0.38
     EXX Screening parameter changed:    0.2000000

     gamma-point specific algorithms are used
 
     K-points division:     npool     =       2
     band groups division:  nbgrp     =       8
     R & G space division:  proc/nbgrp/npool/nimage =       8
     Subspace diagonalization in iterative solution of the eigenvalue problem:
     a serial algorithm will be used

     EXX: q-point mesh:     1    1    1
     EXX: grid of k+q points same as grid of k-points
 
     Parallelization info
     --------------------
     sticks:   dense  smooth     PW     G-vecs:    dense   smooth      PW
     Min        1658    1658    413               186125   186125   23258
     Max        1660    1660    418               186132   186132   23262
     Sum       13273   13273   3319              1489031  1489031  186077
 
     Using Slab Decomposition
 


     bravais-lattice index     =            0
     lattice parameter (alat)  =      24.5558  a.u.
     unit-cell volume          =   15406.2245 (a.u.)^3
     number of atoms/cell      =          191
     number of atomic types    =            4
     number of electrons       =      2482.00
     number of Kohn-Sham states=         1260
     kinetic-energy cutoff     =      80.0000  Ry
     charge density cutoff     =     320.0000  Ry
     cutoff for Fock operator  =     160.0000  Ry
     scf convergence threshold =      1.0E-09
     mixing beta               =       0.5000
     number of iterations used =            8  plain     mixing
     Exchange-correlation= HSE
                           (   1   4  12   4   0   0   0)
     EXX-fraction              =        0.38

     celldm(1)=  24.555771  celldm(2)=   0.000000  celldm(3)=   0.000000
     celldm(4)=   0.000000  celldm(5)=   0.000000  celldm(6)=   0.000000

     crystal axes: (cart. coord. in units of alat)
               a(1) = (   1.000000   0.000000   0.000000 )  
               a(2) = (  -0.500000   0.866025   0.000000 )  
               a(3) = (   0.000000   0.000000   1.201448 )  

     reciprocal axes: (cart. coord. in units 2 pi/alat)
               b(1) = (  1.000000  0.577350  0.000000 )  
               b(2) = (  0.000000  1.154701  0.000000 )  
               b(3) = (  0.000000  0.000000  0.832329 )  


     PseudoPot. # 1 for Zn read from file:
     ~/Pseudopotential/pseudo-ONCV-proj/Zn_ONCV_PBE-1.0.upf
     MD5 check sum: Not computed, couldn't open file
     Pseudo is Norm-conserving, Zval = 20.0
     Generated using ONCVPSP code by D. R. Hamann
     Using radial grid of 1326 points,  6 beta functions with: 
                l(1) =   0
                l(2) =   0
                l(3) =   1
                l(4) =   1
                l(5) =   2
                l(6) =   2

     PseudoPot. # 2 for Zn read from file:
     ~/Pseudopotential/pseudo-ONCV-proj/Zn_ONCV_PBE-1.0.upf
     MD5 check sum: Not computed, couldn't open file
     Pseudo is Norm-conserving, Zval = 20.0
     Generated using ONCVPSP code by D. R. Hamann
     Using radial grid of 1326 points,  6 beta functions with: 
                l(1) =   0
                l(2) =   0
                l(3) =   1
                l(4) =   1
                l(5) =   2
                l(6) =   2

     PseudoPot. # 3 for O  read from file:
     ~/Pseudopotential/pseudo-ONCV-proj/O_ONCV_PBE-1.0.upf
     MD5 check sum: Not computed, couldn't open file
     Pseudo is Norm-conserving, Zval =  6.0
     Generated using ONCVPSP code by D. R. Hamann
     Using radial grid of  936 points,  4 beta functions with: 
                l(1) =   0
                l(2) =   0
                l(3) =   1
                l(4) =   1

     PseudoPot. # 4 for V  read from file:
     ~/Pseudopotential/pseudo-ONCV-proj/V_ONCV_PBE-1.0.upf
     MD5 check sum: Not computed, couldn't open file
     Pseudo is Norm-conserving, Zval = 13.0
     Generated using ONCVPSP code by D. R. Hamann
     Using radial grid of 1536 points,  6 beta functions with: 
                l(1) =   0
                l(2) =   0
                l(3) =   1
                l(4) =   1
                l(5) =   2
                l(6) =   2

     atomic species   valence    mass     pseudopotential
        Zn1           20.00    65.39000     Zn( 1.00)
        Zn            20.00    65.39000     Zn( 1.00)
        O              6.00    15.99940     O ( 1.00)
        V             13.00    50.94150     V ( 1.00)

     Starting magnetic structure 
     atomic species   magnetization
        Zn1          0.500
        Zn           0.000
        O            0.000
        V            1.000

     No symmetry found


                                    s                        frac. trans.

      isym =  1     identity                                     

 cryst.   s( 1) = (     1          0          0      )
                  (     0          1          0      )
                  (     0          0          1      )

 cart.    s( 1) = (  1.0000000  0.0000000  0.0000000 )
                  (  0.0000000  1.0000000  0.0000000 )
                  (  0.0000000  0.0000000  1.0000000 )


   Cartesian axes

     site n.     atom                  positions (alat units)
         1           Zn  tau(   1) = (   0.1249598   0.0721920   0.1997491  )
         2           Zn  tau(   2) = (   0.1251072   0.0721069   0.6010524  )
         3           Zn  tau(   3) = (   0.1250220   0.0721561   1.0012843  )
         4           Zn  tau(   4) = (  -0.0001729   0.2885682   0.1999057  )
         5           Zn  tau(   5) = (  -0.0003507   0.2884672   0.6008527  )
         6           Zn  tau(   6) = (  -0.0000192   0.2886545   1.0015519  )
         7           Zn  tau(   7) = (  -0.1250000   0.5051233   0.1997484  )
         8           Zn  tau(   8) = (  -0.1249961   0.5053053   0.6010590  )
         9           Zn  tau(   9) = (  -0.1250010   0.5052046   1.0012925  )
        10           Zn  tau(  10) = (  -0.2499629   0.7217054   0.1997172  )
        11           Zn  tau(  11) = (  -0.2495779   0.7219327   0.6011344  )
        12           Zn  tau(  12) = (  -0.2499827   0.7217011   1.0014838  )
        13           Zn  tau(  13) = (   0.3750033   0.0721278   0.1997172  )
        14           Zn  tau(  14) = (   0.3749990   0.0716808   0.6011344  )
        15           Zn  tau(  15) = (   0.3749971   0.0721472   1.0014838  )
        16           Zn  tau(  16) = (   0.2495190   0.2883045   0.2000878  )
        17           Zn  tau(  17) = (   0.2475081   0.2867699   0.6026895  )
        18           Zn  tau(  18) = (   0.2507995   0.2892075   1.0007446  )
        19           Zn  tau(  19) = (   0.1244275   0.5049532   0.2000820  )
        20           Zn  tau(  20) = (   0.1220156   0.5039866   0.6026879  )
        21           Zn  tau(  21) = (   0.1258314   0.5056217   1.0007725  )
        22           Zn  tau(  22) = (  -0.0000450   0.7217138   0.1997144  )
        23           Zn  tau(  23) = (  -0.0004786   0.7219641   0.6011415  )
        24           Zn  tau(  24) = (  -0.0000515   0.7217175   1.0014996  )
        25           Zn  tau(  25) = (   0.6250503   0.0721978   0.1997484  )
        26           Zn  tau(  26) = (   0.6248947   0.0721035   0.6010590  )
        27           Zn  tau(  27) = (   0.6249795   0.0721581   1.0012925  )
        28           Zn  tau(  28) = (   0.5004931   0.2883000   0.2000812  )
        29           Zn  tau(  29) = (   0.5025970   0.2867130   0.6027003  )
        30           Zn  tau(  30) = (   0.4992335   0.2891858   1.0007678  )
        31           Zn  tau(  31) = (   0.3749990   0.5051821   0.2007026  )
        32           Zn  tau(  32) = (   0.3749843   0.5051905   1.0032425  )
        33           Zn  tau(  33) = (   0.2499114   0.7222977   0.2000820  )
        34           Zn  tau(  34) = (   0.2495426   0.7248698   0.6026879  )
        35           Zn  tau(  35) = (   0.2500345   0.7207476   1.0007725  )
        36           Zn  tau(  36) = (   0.8750061   0.0723719   0.1999057  )
        37           Zn  tau(  37) = (   0.8750047   0.0725765   0.6008527  )
        38           Zn  tau(  38) = (   0.8750083   0.0721958   1.0015519  )
        39           Zn  tau(  39) = (   0.7501905   0.2885651   0.1999056  )
        40           Zn  tau(  40) = (   0.7503777   0.2884571   0.6008518  )
        41           Zn  tau(  41) = (   0.7500567   0.2886424   1.0015718  )
        42           Zn  tau(  42) = (   0.6255714   0.5049420   0.2000812  )
        43           Zn  tau(  43) = (   0.6279978   0.5039134   0.6027003  )
        44           Zn  tau(  44) = (   0.6241745   0.5055899   1.0007678  )
        45           Zn  tau(  45) = (   0.5000805   0.7222897   0.2000878  )
        46           Zn  tau(  46) = (   0.5004040   0.7247984   0.6026895  )
        47           Zn  tau(  47) = (   0.4999388   0.7207292   1.0007446  )
        48           Zn  tau(  48) = (   0.0000153   0.1443287   0.0000590  )
        49           Zn  tau(  49) = (  -0.0000348   0.1443577   0.4001999  )
        50           Zn  tau(  50) = (   0.0001146   0.1442714   0.8013188  )
        51           Zn  tau(  51) = (  -0.1249917   0.3608563   0.0000686  )
        52           Zn  tau(  52) = (  -0.1249957   0.3608089   0.4001961  )
        53           Zn  tau(  53) = (  -0.1249788   0.3610031   0.8013357  )
        54           Zn  tau(  54) = (  -0.2500693   0.5772852   1.2011955  )
        55           Zn  tau(  55) = (  -0.2492986   0.5776540   0.3999219  )
        56           Zn  tau(  56) = (  -0.2511295   0.5774087   0.8016786  )
        57           Zn  tau(  57) = (  -0.3750888   0.7938202   1.2011845  )
        58           Zn  tau(  58) = (  -0.3743860   0.7943202   0.3999299  )
        59           Zn  tau(  59) = (  -0.3755720   0.7928251   0.8016557  )
        60           Zn  tau(  60) = (   0.2499871   0.1444327   1.2011845  )
        61           Zn  tau(  61) = (   0.2499055   0.1435740   0.3999299  )
        62           Zn  tau(  62) = (   0.2506073   0.1453486   0.8016557  )
        63           Zn  tau(  63) = (   0.1250656   0.3608861   1.2011424  )
        64           Zn  tau(  64) = (   0.1242860   0.3604436   0.4001467  )
        65           Zn  tau(  65) = (   0.1252368   0.3610221   0.8023302  )
        66           Zn  tau(  66) = (   0.0000654   0.5772939   1.2011989  )
        67           Zn  tau(  67) = (  -0.0007173   0.5776686   0.3999174  )
        68           Zn  tau(  68) = (   0.0011106   0.5774519   0.8016823  )
        69           Zn  tau(  69) = (  -0.1250093   0.7938620   0.0000546  )
        70           Zn  tau(  70) = (  -0.1250152   0.7938654   0.3997695  )
        71           Zn  tau(  71) = (  -0.1250510   0.7938860   0.8013474  )
        72           Zn  tau(  72) = (   0.5000217   0.1444301   1.2011955  )
        73           Zn  tau(  73) = (   0.5000877   0.1435783   0.3999219  )
        74           Zn  tau(  74) = (   0.4993846   0.1452865   0.8016786  )
        75           Zn  tau(  75) = (   0.3750105   0.3606321   0.0009825  )
        76           Zn  tau(  76) = (   0.3750143   0.3593138   0.3973694  )
        77           Zn  tau(  77) = (   0.3750723   0.3716591   0.7983075  )
        78           Zn  tau(  78) = (   0.2498184   0.5774551   0.0009906  )
        79           Zn  tau(  79) = (   0.2486623   0.5781226   0.3973587  )
        80           Zn  tau(  80) = (   0.2593413   0.5719570   0.7983260  )
        81           Zn  tau(  81) = (   0.1250815   0.7938281   1.2011989  )
        82           Zn  tau(  82) = (   0.1243657   0.7943186   0.3999174  )
        83           Zn  tau(  83) = (   0.1254673   0.7928439   0.8016823  )
        84           Zn  tau(  84) = (   0.7499934   0.1443242   0.0000686  )
        85           Zn  tau(  85) = (   0.7500325   0.1443514   0.4001961  )
        86           Zn  tau(  86) = (   0.7498727   0.1442396   0.8013357  )
        87           Zn  tau(  87) = (   0.6249130   0.3608941   1.2011410  )
        88           Zn  tau(  88) = (   0.6257281   0.3604236   0.4001413  )
        89           Zn  tau(  89) = (   0.6248568   0.3609266   0.8023595  )
        90           Zn  tau(  90) = (   0.5001887   0.5774471   0.0009825  )
        91           Zn  tau(  91) = (   0.5013322   0.5781029   0.3973694  )
        92           Zn  tau(  92) = (   0.4906699   0.5718801   0.7983075  )
        93           Zn  tau(  93) = (   0.3749963   0.7937787   1.2011424  )
        94           Zn  tau(  94) = (   0.3749897   0.7946750   0.4001467  )
        95           Zn  tau(  95) = (   0.3749641   0.7935624   0.8023302  )
        96           O   tau(  96) = (   0.1249450   0.0722005   0.3529498  )
        97           O   tau(  97) = (   0.1254531   0.0719072   0.7534945  )
        98           O   tau(  98) = (   0.1250091   0.0721635   1.1539562  )
        99           O   tau(  99) = (  -0.0000162   0.2886569   0.3530410  )
       100           O   tau( 100) = (   0.0006286   0.2890371   0.7532614  )
       101           O   tau( 101) = (   0.0000797   0.2887110   1.1541353  )
       102           O   tau( 102) = (  -0.1249974   0.5051035   0.3529424  )
       103           O   tau( 103) = (  -0.1249853   0.5057154   0.7534963  )
       104           O   tau( 104) = (  -0.1249930   0.5051767   1.1539636  )
       105           O   tau( 105) = (  -0.2500643   0.7216495   0.3528977  )
       106           O   tau( 106) = (  -0.2502751   0.7215347   0.7532597  )
       107           O   tau( 107) = (  -0.2500294   0.7216671   1.1540586  )
       108           O   tau( 108) = (   0.3750010   0.0722436   0.3528977  )
       109           O   tau( 109) = (   0.3749950   0.0724836   0.7532597  )
       110           O   tau( 110) = (   0.3750032   0.0722046   1.1540586  )
       111           O   tau( 111) = (   0.2500362   0.2887008   0.3539667  )
       112           O   tau( 112) = (   0.2523309   0.2914073   0.7538649  )
       113           O   tau( 113) = (   0.2504243   0.2889944   1.1536158  )
       114           O   tau( 114) = (   0.1250246   0.5052020   0.3539600  )
       115           O   tau( 115) = (   0.1284252   0.5059162   0.7538637  )
       116           O   tau( 116) = (   0.1254813   0.5053948   1.1536352  )
       117           O   tau( 117) = (   0.0000491   0.7216594   0.3528920  )
       118           O   tau( 118) = (   0.0002028   0.7215707   0.7532623  )
       119           O   tau( 119) = (   0.0000305   0.7216702   1.1540697  )
       120           O   tau( 120) = (   0.6250687   0.0722055   0.3529424  )
       121           O   tau( 121) = (   0.6245450   0.0718891   0.7534963  )
       122           O   tau( 122) = (   0.6250076   0.0721651   1.1539636  )
       123           O   tau( 123) = (   0.4999888   0.2886873   0.3539558  )
       124           O   tau( 124) = (   0.4977896   0.2913204   0.7538743  )
       125           O   tau( 125) = (   0.4995986   0.2889789   1.1536332  )
       126           O   tau( 126) = (   0.3749959   0.5051838   0.3564423  )
       127           O   tau( 127) = (   0.3750063   0.5051778   1.1550981  )
       128           O   tau( 128) = (   0.2499946   0.7216562   0.3539600  )
       129           O   tau( 129) = (   0.2510763   0.7183541   0.7538637  )
       130           O   tau( 130) = (   0.2500559   0.7211643   1.1536352  )
       131           O   tau( 131) = (   0.8750077   0.0721919   0.3530410  )
       132           O   tau( 132) = (   0.8750008   0.0714434   0.7532614  )
       133           O   tau( 133) = (   0.8750088   0.0720818   1.1541353  )
       134           O   tau( 134) = (   0.7500485   0.2886471   0.3530360  )
       135           O   tau( 135) = (   0.7494730   0.2889794   0.7532587  )
       136           O   tau( 136) = (   0.7499532   0.2887021   1.1541411  )
       137           O   tau( 137) = (   0.6249838   0.5051851   0.3539558  )
       138           O   tau( 138) = (   0.6216040   0.5057731   0.7538743  )
       139           O   tau( 139) = (   0.6245363   0.5053772   1.1536332  )
       140           O   tau( 140) = (   0.4999959   0.7216436   0.3539667  )
       141           O   tau( 141) = (   0.4987993   0.7183031   0.7538649  )
       142           O   tau( 142) = (   0.4999357   0.7211607   1.1536158  )
       143           O   tau( 143) = (   0.0000093   0.1443322   0.1529244  )
       144           O   tau( 144) = (   0.0002422   0.1441977   0.5531531  )
       145           O   tau( 145) = (  -0.0000259   0.1443525   0.9535831  )
       146           O   tau( 146) = (  -0.1249970   0.3608549   0.1529300  )
       147           O   tau( 147) = (  -0.1249789   0.3611467   0.5531460  )
       148           O   tau( 148) = (  -0.1249925   0.3608271   0.9535920  )
       149           O   tau( 149) = (  -0.2501149   0.5772620   0.1528659  )
       150           O   tau( 150) = (  -0.2507158   0.5774084   0.5530766  )
       151           O   tau( 151) = (  -0.2503418   0.5772481   0.9537245  )
       152           O   tau( 152) = (  -0.3751407   0.7938044   0.1528607  )
       153           O   tau( 153) = (  -0.3753405   0.7931900   0.5530875  )
       154           O   tau( 154) = (  -0.3752714   0.7936078   0.9537100  )
       155           O   tau( 155) = (   0.2499748   0.1444855   0.1528607  )
       156           O   tau( 156) = (   0.2504070   0.1449658   0.5530875  )
       157           O   tau( 157) = (   0.2500797   0.1446970   0.9537100  )
       158           O   tau( 158) = (   0.1250808   0.3608984   0.1530124  )
       159           O   tau( 159) = (   0.1257090   0.3612849   0.5532848  )
       160           O   tau( 160) = (   0.1251271   0.3609382   0.9540348  )
       161           O   tau( 161) = (   0.0001019   0.5772677   0.1528661  )
       162           O   tau( 162) = (   0.0006933   0.5774478   0.5530727  )
       163           O   tau( 163) = (   0.0003168   0.5772726   0.9537287  )
       164           O   tau( 164) = (  -0.1250119   0.7938635   0.1529230  )
       165           O   tau( 165) = (  -0.1250375   0.7938783   0.5526887  )
       166           O   tau( 166) = (  -0.1250214   0.7938689   0.9536426  )
       167           O   tau( 167) = (   0.5000190   0.1444812   0.1528659  )
       168           O   tau( 168) = (   0.4995918   0.1449284   0.5530766  )
       169           O   tau( 169) = (   0.4999176   0.1446846   0.9537245  )
       170           O   tau( 170) = (   0.3749972   0.3610011   0.1544092  )
       171           O   tau( 171) = (   0.3750781   0.3664330   0.5562423  )
       172           O   tau( 172) = (   0.3750284   0.3625233   0.9505914  )
       173           O   tau( 173) = (   0.2501249   0.5772781   0.1544112  )
       174           O   tau( 174) = (   0.2547224   0.5746238   0.5562252  )
       175           O   tau( 175) = (   0.2514109   0.5765357   0.9505993  )
       176           O   tau( 176) = (   0.1251225   0.7938097   0.1528661  )
       177           O   tau( 177) = (   0.1252622   0.7932074   0.5530727  )
       178           O   tau( 178) = (   0.1252256   0.7936210   0.9537287  )
       179           O   tau( 179) = (   0.7499920   0.1443295   0.1529300  )
       180           O   tau( 180) = (   0.7497484   0.1441679   0.5531460  )
       181           O   tau( 181) = (   0.7500183   0.1443394   0.9535920  )
       182           O   tau( 182) = (   0.6249234   0.3608881   0.1530167  )
       183           O   tau( 183) = (   0.6243568   0.3612152   0.5532676  )
       184           O   tau( 184) = (   0.6249006   0.3609013   0.9540455  )
       185           O   tau( 185) = (   0.4998624   0.5772741   0.1544092  )
       186           O   tau( 186) = (   0.4951988   0.5744880   0.5562423  )
       187           O   tau( 187) = (   0.4985598   0.5764859   0.9505914  )
       188           O   tau( 188) = (   0.3749933   0.7937593   0.1530124  )
       189           O   tau( 189) = (   0.3749726   0.7930220   0.5532848  )
       190           O   tau( 190) = (   0.3749819   0.7936993   0.9540348  )
       191           V   tau( 191) = (   0.3750075   0.5051771   0.5968715  )

   Crystallographic axes

     site n.     atom                  positions (cryst. coord.)
         1           Zn  tau(   1) = (  0.1666399  0.0833601  0.1662570  )
         2           Zn  tau(   2) = (  0.1667381  0.0832619  0.5002734  )
         3           Zn  tau(   3) = (  0.1666813  0.0833187  0.8333981  )
         4           Zn  tau(   4) = (  0.1664321  0.3332099  0.1663873  )
         5           Zn  tau(   5) = (  0.1661959  0.3330932  0.5001072  )
         6           Zn  tau(   6) = (  0.1666355  0.3333095  0.8336208  )
         7           Zn  tau(   7) = (  0.1666331  0.5832662  0.1662564  )
         8           Zn  tau(   8) = (  0.1667421  0.5834764  0.5002789  )
         9           Zn  tau(   9) = (  0.1666790  0.5833600  0.8334049  )
        10           Zn  tau(  10) = (  0.1667140  0.8333537  0.1662304  )
        11           Zn  tau(  11) = (  0.1672301  0.8336161  0.5003417  )
        12           Zn  tau(  12) = (  0.1666916  0.8333488  0.8335641  )
        13           Zn  tau(  13) = (  0.4166463  0.0832860  0.1662304  )
        14           Zn  tau(  14) = (  0.4163839  0.0827699  0.5003417  )
        15           Zn  tau(  15) = (  0.4166512  0.0833084  0.8335641  )
        16           Zn  tau(  16) = (  0.4159717  0.3329054  0.1665389  )
        17           Zn  tau(  17) = (  0.4130748  0.3311334  0.5016360  )
        18           Zn  tau(  18) = (  0.4177736  0.3339481  0.8329489  )
        19           Zn  tau(  19) = (  0.4159624  0.5830698  0.1665341  )
        20           Zn  tau(  20) = (  0.4129924  0.5819536  0.5016347  )
        21           Zn  tau(  21) = (  0.4177522  0.5838417  0.8329721  )
        22           Zn  tau(  22) = (  0.4166366  0.8333634  0.1662281  )
        23           Zn  tau(  23) = (  0.4163476  0.8336524  0.5003476  )
        24           Zn  tau(  24) = (  0.4166323  0.8333677  0.8335773  )
        25           Zn  tau(  25) = (  0.6667338  0.0833669  0.1662564  )
        26           Zn  tau(  26) = (  0.6665236  0.0832579  0.5002789  )
        27           Zn  tau(  27) = (  0.6666400  0.0833210  0.8334049  )
        28           Zn  tau(  28) = (  0.6669431  0.3329002  0.1665334  )
        29           Zn  tau(  29) = (  0.6681309  0.3310677  0.5016450  )
        30           Zn  tau(  30) = (  0.6661950  0.3339231  0.8329682  )
        31           Zn  tau(  31) = (  0.6666660  0.5833340  0.1670506  )
        32           Zn  tau(  32) = (  0.6666562  0.5833438  0.8350279  )
        33           Zn  tau(  33) = (  0.6669302  0.8340376  0.1665341  )
        34           Zn  tau(  34) = (  0.6680464  0.8370076  0.5016347  )
        35           Zn  tau(  35) = (  0.6661583  0.8322478  0.8329721  )
        36           Zn  tau(  36) = (  0.9167901  0.0835679  0.1663873  )
        37           Zn  tau(  37) = (  0.9169068  0.0838041  0.5001072  )
        38           Zn  tau(  38) = (  0.9166905  0.0833645  0.8336208  )
        39           Zn  tau(  39) = (  0.9167937  0.3332063  0.1663873  )
        40           Zn  tau(  40) = (  0.9169185  0.3330815  0.5001065  )
        41           Zn  tau(  41) = (  0.9167045  0.3332955  0.8336373  )
        42           Zn  tau(  42) = (  0.9170998  0.5830569  0.1665334  )
        43           Zn  tau(  43) = (  0.9189323  0.5818691  0.5016450  )
        44           Zn  tau(  44) = (  0.9160769  0.5838050  0.8329682  )
        45           Zn  tau(  45) = (  0.9170946  0.8340283  0.1665389  )
        46           Zn  tau(  46) = (  0.9188666  0.8369252  0.5016360  )
        47           Zn  tau(  47) = (  0.9160519  0.8322264  0.8329489  )
        48           Zn  tau(  48) = (  0.0833435  0.1666565  0.0000491  )
        49           Zn  tau(  49) = (  0.0833101  0.1666899  0.3330980  )
        50           Zn  tau(  50) = (  0.0834097  0.1665903  0.6669610  )
        51           Zn  tau(  51) = (  0.0833487  0.4166810  0.0000571  )
        52           Zn  tau(  52) = (  0.0833174  0.4166262  0.3330948  )
        53           Zn  tau(  53) = (  0.0834464  0.4168505  0.6669750  )
        54           Zn  tau(  54) = (  0.0832264  0.6665915  0.9997900  )
        55           Zn  tau(  55) = (  0.0842100  0.6670174  0.3328667  )
        56           Zn  tau(  56) = (  0.0822375  0.6667342  0.6672604  )
        57           Zn  tau(  57) = (  0.0832234  0.9166246  0.9997808  )
        58           Zn  tau(  58) = (  0.0842150  0.9172021  0.3328733  )
        59           Zn  tau(  59) = (  0.0821658  0.9154756  0.6672414  )
        60           Zn  tau(  60) = (  0.3333754  0.1667766  0.9997808  )
        61           Zn  tau(  61) = (  0.3327979  0.1657849  0.3328733  )
        62           Zn  tau(  62) = (  0.3345244  0.1678342  0.6672414  )
        63           Zn  tau(  63) = (  0.3334233  0.4167154  0.9997458  )
        64           Zn  tau(  64) = (  0.3323882  0.4162045  0.3330538  )
        65           Zn  tau(  65) = (  0.3336730  0.4168724  0.6678028  )
        66           Zn  tau(  66) = (  0.3333662  0.6666016  0.9997928  )
        67           Zn  tau(  67) = (  0.3327998  0.6670342  0.3328629  )
        68           Zn  tau(  68) = (  0.3345026  0.6667840  0.6672635  )
        69           Zn  tau(  69) = (  0.3333271  0.9166729  0.0000454  )
        70           Zn  tau(  70) = (  0.3333232  0.9166768  0.3327398  )
        71           Zn  tau(  71) = (  0.3332993  0.9167007  0.6669848  )
        72           Zn  tau(  72) = (  0.5834085  0.1667736  0.9997900  )
        73           Zn  tau(  73) = (  0.5829826  0.1657899  0.3328667  )
        74           Zn  tau(  74) = (  0.5832658  0.1677625  0.6672604  )
        75           Zn  tau(  75) = (  0.5832215  0.4164221  0.0008177  )
        76           Zn  tau(  76) = (  0.5824642  0.4148999  0.3307421  )
        77           Zn  tau(  77) = (  0.5896497  0.4291550  0.6644546  )
        78           Zn  tau(  78) = (  0.5832122  0.6667878  0.0008245  )
        79           Zn  tau(  79) = (  0.5824415  0.6675585  0.3307332  )
        80           Zn  tau(  80) = (  0.5895609  0.6604391  0.6644700  )
        81           Zn  tau(  81) = (  0.5833984  0.9166338  0.9997928  )
        82           Zn  tau(  82) = (  0.5829658  0.9172002  0.3328629  )
        83           Zn  tau(  83) = (  0.5832160  0.9154974  0.6672635  )
        84           Zn  tau(  84) = (  0.8333190  0.1666512  0.0000571  )
        85           Zn  tau(  85) = (  0.8333738  0.1666826  0.3330948  )
        86           Zn  tau(  86) = (  0.8331495  0.1665536  0.6669750  )
        87           Zn  tau(  87) = (  0.8332753  0.4167247  0.9997446  )
        88           Zn  tau(  88) = (  0.8338187  0.4161813  0.3330493  )
        89           Zn  tau(  89) = (  0.8332378  0.4167622  0.6678271  )
        90           Zn  tau(  90) = (  0.8335779  0.6667785  0.0008177  )
        91           Zn  tau(  91) = (  0.8351001  0.6675358  0.3307421  )
        92           Zn  tau(  92) = (  0.8208450  0.6603503  0.6644546  )
        93           Zn  tau(  93) = (  0.8332846  0.9165767  0.9997458  )
        94           Zn  tau(  94) = (  0.8337955  0.9176118  0.3330538  )
        95           Zn  tau(  95) = (  0.8331276  0.9163270  0.6678028  )
        96           O   tau(  96) = (  0.1666300  0.0833700  0.2937704  )
        97           O   tau(  97) = (  0.1669687  0.0830312  0.6271554  )
        98           O   tau(  98) = (  0.1666727  0.0833273  0.9604714  )
        99           O   tau(  99) = (  0.1666399  0.3333123  0.2938463  )
       100           O   tau( 100) = (  0.1675042  0.3337513  0.6269614  )
       101           O   tau( 101) = (  0.1667671  0.3333747  0.9606204  )
       102           O   tau( 102) = (  0.1666242  0.5832434  0.2937643  )
       103           O   tau( 103) = (  0.1669897  0.5839499  0.6271569  )
       104           O   tau( 104) = (  0.1666709  0.5833278  0.9604775  )
       105           O   tau( 105) = (  0.1665802  0.8332892  0.2937271  )
       106           O   tau( 106) = (  0.1663031  0.8331565  0.6269600  )
       107           O   tau( 107) = (  0.1666253  0.8333095  0.9605566  )
       108           O   tau( 108) = (  0.4167108  0.0834198  0.2937271  )
       109           O   tau( 109) = (  0.4168435  0.0836969  0.6269600  )
       110           O   tau( 110) = (  0.4166905  0.0833747  0.9605566  )
       111           O   tau( 111) = (  0.4167177  0.3333630  0.2946168  )
       112           O   tau( 112) = (  0.4205750  0.3364882  0.6274637  )
       113           O   tau( 113) = (  0.4172753  0.3337020  0.9601880  )
       114           O   tau( 114) = (  0.4167031  0.5833570  0.2946112  )
       115           O   tau( 115) = (  0.4205160  0.5841818  0.6274627  )
       116           O   tau( 116) = (  0.4172711  0.5835797  0.9602041  )
       117           O   tau( 117) = (  0.4166994  0.8333006  0.2937223  )
       118           O   tau( 118) = (  0.4168018  0.8331982  0.6269621  )
       119           O   tau( 119) = (  0.4166870  0.8333130  0.9605658  )
       120           O   tau( 120) = (  0.6667566  0.0833758  0.2937643  )
       121           O   tau( 121) = (  0.6660501  0.0830103  0.6271569  )
       122           O   tau( 122) = (  0.6666722  0.0833291  0.9604775  )
       123           O   tau( 123) = (  0.6666625  0.3333474  0.2946077  )
       124           O   tau( 124) = (  0.6659835  0.3363878  0.6274715  )
       125           O   tau( 125) = (  0.6664406  0.3336841  0.9602025  )
       126           O   tau( 126) = (  0.6666639  0.5833361  0.2966773  )
       127           O   tau( 127) = (  0.6666709  0.5833291  0.9614218  )
       128           O   tau( 128) = (  0.6666430  0.8332969  0.2946112  )
       129           O   tau( 129) = (  0.6658182  0.8294840  0.6274627  )
       130           O   tau( 130) = (  0.6664203  0.8327289  0.9602041  )
       131           O   tau( 131) = (  0.9166877  0.0833601  0.2938463  )
       132           O   tau( 132) = (  0.9162487  0.0824958  0.6269614  )
       133           O   tau( 133) = (  0.9166253  0.0832329  0.9606204  )
       134           O   tau( 134) = (  0.9166990  0.3333010  0.2938422  )
       135           O   tau( 135) = (  0.9163153  0.3336847  0.6269591  )
       136           O   tau( 136) = (  0.9166355  0.3333645  0.9606253  )
       137           O   tau( 137) = (  0.9166526  0.5833375  0.2946077  )
       138           O   tau( 138) = (  0.9136122  0.5840165  0.6274715  )
       139           O   tau( 139) = (  0.9163159  0.5835594  0.9602025  )
       140           O   tau( 140) = (  0.9166370  0.8332823  0.2946168  )
       141           O   tau( 141) = (  0.9135118  0.8294250  0.6274637  )
       142           O   tau( 142) = (  0.9162980  0.8327247  0.9601880  )
       143           O   tau( 143) = (  0.0833395  0.1666605  0.1272834  )
       144           O   tau( 144) = (  0.0834948  0.1665052  0.4604054  )
       145           O   tau( 145) = (  0.0833161  0.1666839  0.7936950  )
       146           O   tau( 146) = (  0.0833426  0.4166794  0.1272881  )
       147           O   tau( 147) = (  0.0835292  0.4170163  0.4603995  )
       148           O   tau( 148) = (  0.0833311  0.4166473  0.7937024  )
       149           O   tau( 149) = (  0.0831675  0.6665648  0.1272348  )
       150           O   tau( 150) = (  0.0826510  0.6667338  0.4603417  )
       151           O   tau( 151) = (  0.0829326  0.6665487  0.7938127  )
       152           O   tau( 152) = (  0.0831625  0.9166064  0.1272304  )
       153           O   tau( 153) = (  0.0826079  0.9158970  0.4603508  )
       154           O   tau( 154) = (  0.0829183  0.9163795  0.7938006  )
       155           O   tau( 155) = (  0.3333936  0.1668375  0.1272304  )
       156           O   tau( 156) = (  0.3341030  0.1673921  0.4603508  )
       157           O   tau( 157) = (  0.3336205  0.1670817  0.7938006  )
       158           O   tau( 158) = (  0.3334456  0.4167296  0.1273566  )
       159           O   tau( 159) = (  0.3342970  0.4171759  0.4605151  )
       160           O   tau( 160) = (  0.3335149  0.4167756  0.7940710  )
       161           O   tau( 161) = (  0.3333875  0.6665713  0.1272349  )
       162           O   tau( 162) = (  0.3340829  0.6667793  0.4603385  )
       163           O   tau( 163) = (  0.3336053  0.6665771  0.7938162  )
       164           O   tau( 164) = (  0.3333254  0.9166746  0.1272823  )
       165           O   tau( 165) = (  0.3333083  0.9166917  0.4600189  )
       166           O   tau( 166) = (  0.3333191  0.9166809  0.7937445  )
       167           O   tau( 167) = (  0.5834352  0.1668325  0.1272348  )
       168           O   tau( 168) = (  0.5832662  0.1673489  0.4603417  )
       169           O   tau( 169) = (  0.5834513  0.1670674  0.7938127  )
       170           O   tau( 170) = (  0.5834212  0.4168482  0.1285192  )
       171           O   tau( 171) = (  0.5866383  0.4231204  0.4629767  )
       172           O   tau( 172) = (  0.5843314  0.4186059  0.7912049  )
       173           O   tau( 173) = (  0.5834166  0.6665834  0.1285209  )
       174           O   tau( 174) = (  0.5864816  0.6635184  0.4629624  )
       175           O   tau( 175) = (  0.5842739  0.6657261  0.7912115  )
       176           O   tau( 176) = (  0.5834287  0.9166125  0.1272349  )
       177           O   tau( 177) = (  0.5832207  0.9159171  0.4603385  )
       178           O   tau( 178) = (  0.5834229  0.9163947  0.7938162  )
       179           O   tau( 179) = (  0.8333206  0.1666574  0.1272881  )
       180           O   tau( 180) = (  0.8329837  0.1664708  0.4603995  )
       181           O   tau( 181) = (  0.8333527  0.1666688  0.7937024  )
       182           O   tau( 182) = (  0.8332823  0.4167177  0.1273603  )
       183           O   tau( 183) = (  0.8329045  0.4170955  0.4605007  )
       184           O   tau( 184) = (  0.8332671  0.4167329  0.7940798  )
       185           O   tau( 185) = (  0.8331518  0.6665788  0.1285192  )
       186           O   tau( 186) = (  0.8268796  0.6633617  0.4629767  )
       187           O   tau( 187) = (  0.8313941  0.6656686  0.7912049  )
       188           O   tau( 188) = (  0.8332704  0.9165544  0.1273566  )
       189           O   tau( 189) = (  0.8328241  0.9157030  0.4605151  )
       190           O   tau( 190) = (  0.8332244  0.9164851  0.7940710  )
       191           V   tau( 191) = (  0.6666717  0.5833283  0.4967936  )

     number of k points=     1  Gaussian smearing, width (Ry)=  0.0001
                       cart. coord. in units 2pi/alat
        k(    1) = (   0.0000000   0.0000000   0.0000000), wk =   1.0000000

                       cryst. coord.
        k(    1) = (   0.0000000   0.0000000   0.0000000), wk =   1.0000000

     Dense  grid:   744516 G-vectors     FFT dimensions: ( 144, 144, 180)

     Dynamical RAM for                 wfc:     223.68 MB

     Dynamical RAM for     wfc (w. buffer):     223.68 MB

     Dynamical RAM for                 EXX:     577.18 MB

     Dynamical RAM for           str. fact:       5.68 MB

     Dynamical RAM for           local pot:       0.00 MB

     Dynamical RAM for          nlocal pot:     441.67 MB

     Dynamical RAM for                qrad:       5.74 MB

     Dynamical RAM for          rho,v,vnew:      30.35 MB

     Dynamical RAM for               rhoin:      10.12 MB

     Dynamical RAM for            rho*nmix:      45.44 MB

     Dynamical RAM for           G-vectors:       6.04 MB

     Dynamical RAM for          h,s,v(r/c):     145.35 MB

     Dynamical RAM for          <psi|beta>:      23.92 MB

     Dynamical RAM for                 psi:     447.35 MB

     Dynamical RAM for                hpsi:     447.35 MB

     Dynamical RAM for      wfcinit/wfcrot:     516.86 MB

     Estimated static dynamical RAM per process >       1.30 GB

     Estimated max dynamical RAM per process >       2.38 GB

     Estimated total dynamical RAM >     302.01 GB
     EXX: ACE will be initialized later
     Generating pointlists ...
     new r_m :   0.4125 (alat units) 10.1293 (a.u.) for type    1
     new r_m :   0.0619 (alat units)  1.5190 (a.u.) for type    2
     new r_m :   0.0596 (alat units)  1.4644 (a.u.) for type    3
     new r_m :   0.0596 (alat units)  1.4644 (a.u.) for type    4

     Initial potential from superposition of free atoms

     starting charge    2482.9858, renormalised to    2482.0000
     Starting wfcs are 1340 randomized atomic wfcs

     total cpu time spent up to now is       11.0 secs

     Self-consistent Calculation

     iteration #  1     ecut=    80.00 Ry     beta= 0.50
     Davidson diagonalization with overlap

---- Real-time Memory Report at c_bands before calling an iterative solver
          1454 MiB given to the printing process from OS
             0 MiB allocation reported by mallinfo(arena+hblkhd)
        172252 MiB available memory on the node where the printing process lives
------------------
     ethr =  1.00E-02,  avg # of iterations =  2.0

     total cpu time spent up to now is       30.2 secs

     total energy              =  -41197.37954944 Ry
     estimated scf accuracy    <      46.57700718 Ry

     total magnetization       =     4.00 Bohr mag/cell
     absolute magnetization    =     4.96 Bohr mag/cell

     iteration #  2     ecut=    80.00 Ry     beta= 0.50
     Davidson diagonalization with overlap

---- Real-time Memory Report at c_bands before calling an iterative solver
          2099 MiB given to the printing process from OS
             0 MiB allocation reported by mallinfo(arena+hblkhd)
        171885 MiB available memory on the node where the printing process lives
------------------
     ethr =  1.88E-03,  avg # of iterations =  4.0

     total cpu time spent up to now is       62.0 secs

     total energy              =  -41211.31219130 Ry
     estimated scf accuracy    <      23.94368319 Ry

     total magnetization       =    -0.00 Bohr mag/cell
     absolute magnetization    =     1.52 Bohr mag/cell

     iteration #  3     ecut=    80.00 Ry     beta= 0.50
     Davidson diagonalization with overlap

---- Real-time Memory Report at c_bands before calling an iterative solver
          2150 MiB given to the printing process from OS
             0 MiB allocation reported by mallinfo(arena+hblkhd)
        171725 MiB available memory on the node where the printing process lives
------------------
     ethr =  9.65E-04,  avg # of iterations =  6.5

     total cpu time spent up to now is       99.0 secs

     total energy              =  -41210.60641965 Ry
     estimated scf accuracy    <      47.56667478 Ry

     total magnetization       =     0.00 Bohr mag/cell
     absolute magnetization    =     2.33 Bohr mag/cell

     iteration #  4     ecut=    80.00 Ry     beta= 0.50
     Davidson diagonalization with overlap

---- Real-time Memory Report at c_bands before calling an iterative solver
          2236 MiB given to the printing process from OS
             0 MiB allocation reported by mallinfo(arena+hblkhd)
        171570 MiB available memory on the node where the printing process lives
------------------
     ethr =  9.65E-04,  avg # of iterations =  7.0

     total cpu time spent up to now is      126.6 secs

     total energy              =  -41215.63310314 Ry
     estimated scf accuracy    <       4.68808672 Ry

     total magnetization       =    -0.00 Bohr mag/cell
     absolute magnetization    =     1.50 Bohr mag/cell

     iteration #  5     ecut=    80.00 Ry     beta= 0.50
     Davidson diagonalization with overlap

---- Real-time Memory Report at c_bands before calling an iterative solver
          2276 MiB given to the printing process from OS
             0 MiB allocation reported by mallinfo(arena+hblkhd)
        171446 MiB available memory on the node where the printing process lives
------------------
     ethr =  1.89E-04,  avg # of iterations =  9.5

     total cpu time spent up to now is      158.7 secs

     total energy              =  -41215.57670740 Ry
     estimated scf accuracy    <       2.07799056 Ry

     total magnetization       =    -0.00 Bohr mag/cell
     absolute magnetization    =     1.94 Bohr mag/cell

     iteration #  6     ecut=    80.00 Ry     beta= 0.50
     Davidson diagonalization with overlap

---- Real-time Memory Report at c_bands before calling an iterative solver
          2293 MiB given to the printing process from OS
             0 MiB allocation reported by mallinfo(arena+hblkhd)
        171348 MiB available memory on the node where the printing process lives
------------------
     ethr =  8.37E-05,  avg # of iterations = 10.5

     total cpu time spent up to now is      193.3 secs

     total energy              =  -41215.72852900 Ry
     estimated scf accuracy    <       0.13231111 Ry

     total magnetization       =     2.00 Bohr mag/cell
     absolute magnetization    =     2.28 Bohr mag/cell

     iteration #  7     ecut=    80.00 Ry     beta= 0.50
     Davidson diagonalization with overlap

---- Real-time Memory Report at c_bands before calling an iterative solver
          2312 MiB given to the printing process from OS
             0 MiB allocation reported by mallinfo(arena+hblkhd)
        171253 MiB available memory on the node where the printing process lives
------------------
     ethr =  5.33E-06,  avg # of iterations =  6.5

     total cpu time spent up to now is      224.0 secs

     total energy              =  -41215.74809370 Ry
     estimated scf accuracy    <       0.16287684 Ry

     total magnetization       =     2.00 Bohr mag/cell
     absolute magnetization    =     2.37 Bohr mag/cell

     iteration #  8     ecut=    80.00 Ry     beta= 0.50
     Davidson diagonalization with overlap

---- Real-time Memory Report at c_bands before calling an iterative solver
          2337 MiB given to the printing process from OS
             0 MiB allocation reported by mallinfo(arena+hblkhd)
        171172 MiB available memory on the node where the printing process lives
------------------
     ethr =  5.33E-06,  avg # of iterations =  2.5

     total cpu time spent up to now is      242.8 secs

     total energy              =  -41215.76038537 Ry
     estimated scf accuracy    <       0.08709656 Ry

     total magnetization       =     2.00 Bohr mag/cell
     absolute magnetization    =     2.37 Bohr mag/cell

     iteration #  9     ecut=    80.00 Ry     beta= 0.50
     Davidson diagonalization with overlap

---- Real-time Memory Report at c_bands before calling an iterative solver
          2350 MiB given to the printing process from OS
             0 MiB allocation reported by mallinfo(arena+hblkhd)
        171073 MiB available memory on the node where the printing process lives
------------------
     ethr =  3.51E-06,  avg # of iterations =  7.5

     total cpu time spent up to now is      272.3 secs

     total energy              =  -41215.76265200 Ry
     estimated scf accuracy    <       0.06492517 Ry

     total magnetization       =     2.00 Bohr mag/cell
     absolute magnetization    =     2.38 Bohr mag/cell

     iteration # 10     ecut=    80.00 Ry     beta= 0.50
     Davidson diagonalization with overlap

---- Real-time Memory Report at c_bands before calling an iterative solver
          2367 MiB given to the printing process from OS
             0 MiB allocation reported by mallinfo(arena+hblkhd)
        170982 MiB available memory on the node where the printing process lives
------------------
     ethr =  2.62E-06,  avg # of iterations =  9.0

     total cpu time spent up to now is      309.7 secs

     total energy              =  -41215.76719917 Ry
     estimated scf accuracy    <       0.00503164 Ry

     total magnetization       =     2.00 Bohr mag/cell
     absolute magnetization    =     2.38 Bohr mag/cell

     iteration # 11     ecut=    80.00 Ry     beta= 0.50
     Davidson diagonalization with overlap

---- Real-time Memory Report at c_bands before calling an iterative solver
          2389 MiB given to the printing process from OS
             0 MiB allocation reported by mallinfo(arena+hblkhd)
        170976 MiB available memory on the node where the printing process lives
------------------
     ethr =  2.03E-07,  avg # of iterations =  9.5

     total cpu time spent up to now is      362.7 secs

     total energy              =  -41215.76840130 Ry
     estimated scf accuracy    <       0.00147998 Ry

     total magnetization       =     2.00 Bohr mag/cell
     absolute magnetization    =     2.36 Bohr mag/cell

     iteration # 12     ecut=    80.00 Ry     beta= 0.50
     Davidson diagonalization with overlap

---- Real-time Memory Report at c_bands before calling an iterative solver
          2399 MiB given to the printing process from OS
             0 MiB allocation reported by mallinfo(arena+hblkhd)
        171148 MiB available memory on the node where the printing process lives
------------------
     ethr =  5.96E-08,  avg # of iterations =  2.5
 
     Magnetic moment per site  (integrated on atomic sphere of radius R)
     atom   1 (R=0.062)  charge= 17.3613  magn= -0.0000
     atom   2 (R=0.062)  charge= 17.3596  magn= -0.0000
     atom   3 (R=0.062)  charge= 17.3602  magn= -0.0000
     atom   4 (R=0.062)  charge= 17.3612  magn= -0.0000
     atom   5 (R=0.062)  charge= 17.3599  magn=  0.0000
     atom   6 (R=0.062)  charge= 17.3607  magn= -0.0000
     atom   7 (R=0.062)  charge= 17.3614  magn= -0.0000
     atom   8 (R=0.062)  charge= 17.3597  magn= -0.0001
     atom   9 (R=0.062)  charge= 17.3603  magn= -0.0000
     atom  10 (R=0.062)  charge= 17.3613  magn= -0.0000
     atom  11 (R=0.062)  charge= 17.3611  magn= -0.0000
     atom  12 (R=0.062)  charge= 17.3607  magn= -0.0000
     atom  13 (R=0.062)  charge= 17.3613  magn= -0.0000
     atom  14 (R=0.062)  charge= 17.3611  magn= -0.0000
     atom  15 (R=0.062)  charge= 17.3607  magn= -0.0000
     atom  16 (R=0.062)  charge= 17.3609  magn= -0.0000
     atom  17 (R=0.062)  charge= 17.3573  magn=  0.0005
     atom  18 (R=0.062)  charge= 17.3595  magn= -0.0001
     atom  19 (R=0.062)  charge= 17.3609  magn=  0.0000
     atom  20 (R=0.062)  charge= 17.3573  magn=  0.0003
     atom  21 (R=0.062)  charge= 17.3595  magn= -0.0001
     atom  22 (R=0.062)  charge= 17.3613  magn= -0.0000
     atom  23 (R=0.062)  charge= 17.3612  magn= -0.0000
     atom  24 (R=0.062)  charge= 17.3608  magn= -0.0000
     atom  25 (R=0.062)  charge= 17.3614  magn= -0.0000
     atom  26 (R=0.062)  charge= 17.3597  magn= -0.0001
     atom  27 (R=0.062)  charge= 17.3603  magn= -0.0000
     atom  28 (R=0.062)  charge= 17.3609  magn= -0.0000
     atom  29 (R=0.062)  charge= 17.3572  magn=  0.0004
     atom  30 (R=0.062)  charge= 17.3595  magn= -0.0001
     atom  31 (R=0.062)  charge= 17.3599  magn= -0.0000
     atom  32 (R=0.062)  charge= 17.3619  magn=  0.0001
     atom  33 (R=0.062)  charge= 17.3609  magn=  0.0000
     atom  34 (R=0.062)  charge= 17.3573  magn=  0.0003
     atom  35 (R=0.062)  charge= 17.3595  magn= -0.0001
     atom  36 (R=0.062)  charge= 17.3612  magn= -0.0000
     atom  37 (R=0.062)  charge= 17.3599  magn=  0.0000
     atom  38 (R=0.062)  charge= 17.3607  magn= -0.0000
     atom  39 (R=0.062)  charge= 17.3612  magn= -0.0000
     atom  40 (R=0.062)  charge= 17.3599  magn=  0.0000
     atom  41 (R=0.062)  charge= 17.3608  magn= -0.0000
     atom  42 (R=0.062)  charge= 17.3609  magn= -0.0000
     atom  43 (R=0.062)  charge= 17.3572  magn=  0.0004
     atom  44 (R=0.062)  charge= 17.3595  magn= -0.0001
     atom  45 (R=0.062)  charge= 17.3609  magn= -0.0000
     atom  46 (R=0.062)  charge= 17.3573  magn=  0.0005
     atom  47 (R=0.062)  charge= 17.3595  magn= -0.0001
     atom  48 (R=0.062)  charge= 17.3609  magn= -0.0000
     atom  49 (R=0.062)  charge= 17.3613  magn= -0.0000
     atom  50 (R=0.062)  charge= 17.3598  magn= -0.0000
     atom  51 (R=0.062)  charge= 17.3609  magn= -0.0000
     atom  52 (R=0.062)  charge= 17.3613  magn= -0.0000
     atom  53 (R=0.062)  charge= 17.3599  magn= -0.0000
     atom  54 (R=0.062)  charge= 17.3605  magn= -0.0000
     atom  55 (R=0.062)  charge= 17.3616  magn= -0.0000
     atom  56 (R=0.062)  charge= 17.3583  magn=  0.0002
     atom  57 (R=0.062)  charge= 17.3605  magn= -0.0000
     atom  58 (R=0.062)  charge= 17.3616  magn= -0.0000
     atom  59 (R=0.062)  charge= 17.3582  magn=  0.0002
     atom  60 (R=0.062)  charge= 17.3605  magn= -0.0000
     atom  61 (R=0.062)  charge= 17.3616  magn= -0.0000
     atom  62 (R=0.062)  charge= 17.3582  magn=  0.0002
     atom  63 (R=0.062)  charge= 17.3602  magn= -0.0000
     atom  64 (R=0.062)  charge= 17.3616  magn=  0.0000
     atom  65 (R=0.062)  charge= 17.3604  magn=  0.0001
     atom  66 (R=0.062)  charge= 17.3605  magn= -0.0000
     atom  67 (R=0.062)  charge= 17.3616  magn= -0.0000
     atom  68 (R=0.062)  charge= 17.3583  magn=  0.0002
     atom  69 (R=0.062)  charge= 17.3608  magn= -0.0000
     atom  70 (R=0.062)  charge= 17.3615  magn= -0.0000
     atom  71 (R=0.062)  charge= 17.3600  magn= -0.0001
     atom  72 (R=0.062)  charge= 17.3605  magn= -0.0000
     atom  73 (R=0.062)  charge= 17.3616  magn= -0.0000
     atom  74 (R=0.062)  charge= 17.3583  magn=  0.0002
     atom  75 (R=0.062)  charge= 17.3607  magn= -0.0000
     atom  76 (R=0.062)  charge= 17.3595  magn=  0.0015
     atom  77 (R=0.062)  charge= 17.3327  magn=  0.0019
     atom  78 (R=0.062)  charge= 17.3608  magn= -0.0000
     atom  79 (R=0.062)  charge= 17.3597  magn=  0.0019
     atom  80 (R=0.062)  charge= 17.3329  magn=  0.0015
     atom  81 (R=0.062)  charge= 17.3605  magn= -0.0000
     atom  82 (R=0.062)  charge= 17.3616  magn= -0.0000
     atom  83 (R=0.062)  charge= 17.3583  magn=  0.0002
     atom  84 (R=0.062)  charge= 17.3609  magn= -0.0000
     atom  85 (R=0.062)  charge= 17.3613  magn= -0.0000
     atom  86 (R=0.062)  charge= 17.3598  magn= -0.0000
     atom  87 (R=0.062)  charge= 17.3602  magn= -0.0001
     atom  88 (R=0.062)  charge= 17.3616  magn=  0.0000
     atom  89 (R=0.062)  charge= 17.3606  magn=  0.0001
     atom  90 (R=0.062)  charge= 17.3607  magn= -0.0000
     atom  91 (R=0.062)  charge= 17.3595  magn=  0.0015
     atom  92 (R=0.062)  charge= 17.3327  magn=  0.0019
     atom  93 (R=0.062)  charge= 17.3602  magn= -0.0000
     atom  94 (R=0.062)  charge= 17.3616  magn=  0.0000
     atom  95 (R=0.062)  charge= 17.3604  magn=  0.0001
     atom  96 (R=0.060)  charge=  5.1976  magn=  0.0001
     atom  97 (R=0.060)  charge=  5.1873  magn=  0.0008
     atom  98 (R=0.060)  charge=  5.1956  magn=  0.0000
     atom  99 (R=0.060)  charge=  5.1975  magn=  0.0001
     atom 100 (R=0.060)  charge=  5.1920  magn=  0.0002
     atom 101 (R=0.060)  charge=  5.1958  magn=  0.0000
     atom 102 (R=0.060)  charge=  5.1976  magn=  0.0001
     atom 103 (R=0.060)  charge=  5.1875  magn=  0.0008
     atom 104 (R=0.060)  charge=  5.1956  magn=  0.0000
     atom 105 (R=0.060)  charge=  5.1975  magn=  0.0000
     atom 106 (R=0.060)  charge=  5.1951  magn=  0.0001
     atom 107 (R=0.060)  charge=  5.1960  magn=  0.0000
     atom 108 (R=0.060)  charge=  5.1975  magn=  0.0000
     atom 109 (R=0.060)  charge=  5.1951  magn=  0.0001
     atom 110 (R=0.060)  charge=  5.1960  magn=  0.0000
     atom 111 (R=0.060)  charge=  5.1968  magn=  0.0003
     atom 112 (R=0.060)  charge=  5.1853  magn=  0.0048
     atom 113 (R=0.060)  charge=  5.1940  magn= -0.0001
     atom 114 (R=0.060)  charge=  5.1968  magn=  0.0004
     atom 115 (R=0.060)  charge=  5.1856  magn=  0.0044
     atom 116 (R=0.060)  charge=  5.1940  magn= -0.0002
     atom 117 (R=0.060)  charge=  5.1974  magn=  0.0000
     atom 118 (R=0.060)  charge=  5.1951  magn=  0.0001
     atom 119 (R=0.060)  charge=  5.1960  magn=  0.0000
     atom 120 (R=0.060)  charge=  5.1976  magn=  0.0000
     atom 121 (R=0.060)  charge=  5.1875  magn=  0.0008
     atom 122 (R=0.060)  charge=  5.1956  magn=  0.0000
     atom 123 (R=0.060)  charge=  5.1969  magn=  0.0003
     atom 124 (R=0.060)  charge=  5.1854  magn=  0.0054
     atom 125 (R=0.060)  charge=  5.1941  magn= -0.0002
     atom 126 (R=0.060)  charge=  5.1917  magn=  0.0012
     atom 127 (R=0.060)  charge=  5.1957  magn= -0.0001
     atom 128 (R=0.060)  charge=  5.1968  magn=  0.0004
     atom 129 (R=0.060)  charge=  5.1857  magn=  0.0044
     atom 130 (R=0.060)  charge=  5.1940  magn= -0.0002
     atom 131 (R=0.060)  charge=  5.1975  magn=  0.0001
     atom 132 (R=0.060)  charge=  5.1920  magn=  0.0002
     atom 133 (R=0.060)  charge=  5.1958  magn=  0.0000
     atom 134 (R=0.060)  charge=  5.1976  magn=  0.0001
     atom 135 (R=0.060)  charge=  5.1922  magn=  0.0002
     atom 136 (R=0.060)  charge=  5.1958  magn=  0.0000
     atom 137 (R=0.060)  charge=  5.1969  magn=  0.0003
     atom 138 (R=0.060)  charge=  5.1854  magn=  0.0054
     atom 139 (R=0.060)  charge=  5.1941  magn= -0.0002
     atom 140 (R=0.060)  charge=  5.1968  magn=  0.0003
     atom 141 (R=0.060)  charge=  5.1853  magn=  0.0048
     atom 142 (R=0.060)  charge=  5.1940  magn= -0.0001
     atom 143 (R=0.060)  charge=  5.1971  magn=  0.0001
     atom 144 (R=0.060)  charge=  5.1947  magn=  0.0002
     atom 145 (R=0.060)  charge=  5.1956  magn=  0.0000
     atom 146 (R=0.060)  charge=  5.1972  magn=  0.0000
     atom 147 (R=0.060)  charge=  5.1946  magn=  0.0002
     atom 148 (R=0.060)  charge=  5.1957  magn=  0.0000
     atom 149 (R=0.060)  charge=  5.1965  magn=  0.0000
     atom 150 (R=0.060)  charge=  5.1951  magn= -0.0008
     atom 151 (R=0.060)  charge=  5.1958  magn=  0.0001
     atom 152 (R=0.060)  charge=  5.1964  magn=  0.0000
     atom 153 (R=0.060)  charge=  5.1951  magn= -0.0008
     atom 154 (R=0.060)  charge=  5.1957  magn=  0.0001
     atom 155 (R=0.060)  charge=  5.1964  magn=  0.0000
     atom 156 (R=0.060)  charge=  5.1951  magn= -0.0008
     atom 157 (R=0.060)  charge=  5.1957  magn=  0.0001
     atom 158 (R=0.060)  charge=  5.1953  magn=  0.0001
     atom 159 (R=0.060)  charge=  5.1962  magn=  0.0008
     atom 160 (R=0.060)  charge=  5.1976  magn= -0.0000
     atom 161 (R=0.060)  charge=  5.1965  magn=  0.0001
     atom 162 (R=0.060)  charge=  5.1952  magn= -0.0009
     atom 163 (R=0.060)  charge=  5.1957  magn=  0.0001
     atom 164 (R=0.060)  charge=  5.1971  magn=  0.0000
     atom 165 (R=0.060)  charge=  5.1962  magn=  0.0000
     atom 166 (R=0.060)  charge=  5.1955  magn= -0.0000
     atom 167 (R=0.060)  charge=  5.1965  magn=  0.0000
     atom 168 (R=0.060)  charge=  5.1951  magn= -0.0008
     atom 169 (R=0.060)  charge=  5.1957  magn=  0.0001
     atom 170 (R=0.060)  charge=  5.1945  magn=  0.0000
     atom 171 (R=0.060)  charge=  5.1974  magn=  0.0014
     atom 172 (R=0.060)  charge=  5.1900  magn= -0.0035
     atom 173 (R=0.060)  charge=  5.1945  magn=  0.0000
     atom 174 (R=0.060)  charge=  5.1974  magn=  0.0019
     atom 175 (R=0.060)  charge=  5.1902  magn= -0.0036
     atom 176 (R=0.060)  charge=  5.1965  magn=  0.0001
     atom 177 (R=0.060)  charge=  5.1952  magn= -0.0009
     atom 178 (R=0.060)  charge=  5.1957  magn=  0.0001
     atom 179 (R=0.060)  charge=  5.1972  magn=  0.0000
     atom 180 (R=0.060)  charge=  5.1947  magn=  0.0002
     atom 181 (R=0.060)  charge=  5.1957  magn=  0.0000
     atom 182 (R=0.060)  charge=  5.1953  magn=  0.0000
     atom 183 (R=0.060)  charge=  5.1965  magn=  0.0007
     atom 184 (R=0.060)  charge=  5.1977  magn= -0.0000
     atom 185 (R=0.060)  charge=  5.1945  magn=  0.0000
     atom 186 (R=0.060)  charge=  5.1974  magn=  0.0015
     atom 187 (R=0.060)  charge=  5.1900  magn= -0.0034
     atom 188 (R=0.060)  charge=  5.1953  magn=  0.0001
     atom 189 (R=0.060)  charge=  5.1962  magn=  0.0008
     atom 190 (R=0.060)  charge=  5.1976  magn= -0.0000
     atom 191 (R=0.060)  charge=  9.5292  magn=  1.3667

     total cpu time spent up to now is      381.6 secs

     End of self-consistent calculation

 ------ SPIN UP ------------


          k = 0.0000 0.0000 0.0000 ( 93039 PWs)   bands (ev):

  -114.0775-114.0677-114.0675-113.7515-113.7515-113.7498-113.7498-113.7493
  -113.7492-113.7308-113.7307-113.7216-113.4842-113.4842-113.4831-113.4719
  -113.4648-113.4629-113.4629-113.4608-113.4597-113.4596-113.4582-113.4566
  -113.4565-113.4545-113.4545-113.4541-113.4541-113.4539-113.4539-113.4531
  -113.4531-113.4530-113.4427-113.4368-113.4367-113.4355-113.4354-113.4347
  -113.4347-113.4022-113.4022-113.4005-113.4005-113.3990-113.3990-113.3980
  -113.3980-113.3978-113.3977-113.3973-113.3973-113.3971-113.3932-113.3932
  -113.3930-113.3930-113.3927-113.3923-113.3871-113.3761-113.3761-113.3755
  -113.3542-113.3541-113.3538-113.3533-113.3532-113.3531-113.3523-113.3517
  -113.3517-113.3472-113.3455-113.3455-113.3425-113.3425-113.3422-113.3404
  -113.3404-113.3402-113.3336-113.3336-113.3335-113.3334-113.3334-113.3327
  -113.3327-113.3324-113.3323-113.3185-113.3169-113.3168-113.3166 -68.3002
   -68.2908 -68.2896 -68.2394 -68.2378 -68.2303 -68.2297 -68.2284 -68.2282
   -67.9802 -67.9801 -67.9786 -67.9785 -67.9775 -67.9772 -67.9620 -67.9619
   -67.9527 -67.9467 -67.9461 -67.9447 -67.9447 -67.9441 -67.9440 -67.9373
   -67.9372 -67.9353 -67.9353 -67.9351 -67.9349 -67.9241 -67.9236 -67.9186
   -67.9184 -67.9149 -67.9092 -67.6913 -67.6913 -67.6901 -67.6901 -67.6901
   -67.6890 -67.6867 -67.6851 -67.6851 -67.6839 -67.6728 -67.6716 -67.6716
   -67.6714 -67.6710 -67.6707 -67.6696 -67.6696 -67.6684 -67.6683 -67.6678
   -67.6672 -67.6671 -67.6665 -67.6664 -67.6660 -67.6658 -67.6657 -67.6642
   -67.6641 -67.6637 -67.6636 -67.6634 -67.6634 -67.6633 -67.6633 -67.6631
   -67.6619 -67.6616 -67.6615 -67.6608 -67.6607 -67.6606 -67.6605 -67.6603
   -67.6594 -67.6588 -67.6587 -67.6587 -67.6584 -67.6583 -67.6576 -67.6570
   -67.6569 -67.6559 -67.6556 -67.6554 -67.6550 -67.6549 -67.6547 -67.6539
   -67.6536 -67.6535 -67.6535 -67.6532 -67.6531 -67.6497 -67.6477 -67.6476
   -67.6473 -67.6473 -67.6461 -67.6460 -67.6452 -67.6452 -67.6414 -67.6414
   -67.6403 -67.6397 -67.6393 -67.6393 -67.6390 -67.6390 -67.6377 -67.6375
   -67.6372 -67.6365 -67.6142 -67.6141 -67.6124 -67.6124 -67.6109 -67.6109
   -67.6061 -67.6058 -67.6057 -67.6056 -67.6055 -67.6054 -67.6054 -67.6051
   -67.6051 -67.6040 -67.6036 -67.6036 -67.6032 -67.6025 -67.6022 -67.6020
   -67.6019 -67.6019 -67.6019 -67.6019 -67.6018 -67.6014 -67.6014 -67.6014
   -67.6013 -67.6013 -67.6013 -67.6007 -67.6004 -67.6003 -67.5989 -67.5989
   -67.5989 -67.5989 -67.5986 -67.5982 -67.5982 -67.5980 -67.5980 -67.5977
   -67.5976 -67.5976 -67.5975 -67.5975 -67.5975 -67.5971 -67.5970 -67.5967
   -67.5967 -67.5966 -67.5964 -67.5929 -67.5913 -67.5913 -67.5860 -67.5859
   -67.5853 -67.5795 -67.5789 -67.5786 -67.5782 -67.5782 -67.5777 -67.5639
   -67.5638 -67.5635 -67.5630 -67.5629 -67.5625 -67.5620 -67.5612 -67.5611
   -67.5582 -67.5582 -67.5580 -67.5578 -67.5577 -67.5576 -67.5573 -67.5569
   -67.5569 -67.5568 -67.5563 -67.5562 -67.5562 -67.5559 -67.5557 -67.5557
   -67.5554 -67.5548 -67.5547 -67.5541 -67.5541 -67.5512 -67.5497 -67.5496
   -67.5496 -67.5496 -67.5494 -67.5491 -67.5477 -67.5476 -67.5476 -67.5474
   -67.5474 -67.5474 -67.5473 -67.5471 -67.5467 -67.5459 -67.5457 -67.5445
   -67.5444 -67.5443 -67.5442 -67.5442 -67.5439 -67.5422 -67.5421 -67.5414
   -67.5414 -67.5413 -67.5412 -67.5412 -67.5411 -67.5411 -67.5383 -67.5377
   -67.5377 -67.5372 -67.5372 -67.5372 -67.5371 -67.5370 -67.5366 -67.5365
   -67.5364 -67.5362 -67.5361 -67.5359 -67.5355 -67.5353 -67.5351 -67.5347
   -67.5273 -67.5257 -67.5256 -67.5254 -67.5220 -67.5220 -67.5211 -67.5207
   -67.5207 -67.5202 -67.5201 -67.5200 -54.0677 -28.1103 -28.1062 -27.9522
    -8.1425  -7.8984  -7.8922  -7.8838  -7.7759  -7.7427  -7.6712  -7.6707
    -7.6321  -7.6115  -7.6102  -7.5893  -7.5479  -7.5473  -7.5241  -7.4997
    -7.4995  -7.4968  -7.4962  -7.4827  -7.4822  -7.4789  -7.4755  -7.4486
    -7.4133  -7.3741  -7.3543  -7.3303  -7.3228  -7.3211  -7.3099  -7.3096
    -7.2888  -7.2887  -7.2864  -7.2640  -7.2639  -7.2631  -7.2580  -7.2569
    -7.2540  -7.2535  -7.2525  -7.2251  -7.2248  -7.2236  -7.2139  -7.2098
    -7.2096  -7.2047  -7.2040  -7.1986  -7.1938  -7.1937  -7.1872  -7.1866
    -7.1800  -7.1795  -7.1776  -7.1715  -7.1658  -7.1624  -7.1623  -7.1426
    -7.1426  -7.1407  -7.1097  -7.1045  -7.1039  -7.0964  -7.0963  -7.0902
    -7.0866  -7.0864  -7.0794  -7.0793  -7.0775  -7.0769  -7.0640  -7.0639
    -7.0556  -7.0551  -7.0547  -7.0520  -7.0518  -7.0475  -7.0157  -7.0092
    -7.0087  -6.9977  -6.9865  -6.9863  -6.9826  -6.9824  -6.9820   3.8154
     3.8663   3.8680   3.9051   3.9081   3.9086   3.9200   3.9246   3.9249
     3.9365   3.9502   3.9504   3.9578   3.9579   3.9767   3.9822   3.9825
     4.0033   4.0166   4.0171   4.0285   4.0456   4.0460   4.0545   4.0627
     4.0726   4.0729   4.0742   4.0903   4.0905   4.0908   4.1005   4.1009
     4.1044   4.1071   4.1073   4.1107   4.1149   4.1155   4.1191   4.1271
     4.1273   4.1287   4.1326   4.1348   4.1348   4.1378   4.1379   4.1395
     4.1427   4.1503   4.1514   4.1517   4.1543   4.1543   4.1664   4.1668
     4.1819   4.1871   4.1971   4.2060   4.2063   4.2150   4.2225   4.2226
     4.2344   4.2346   4.2364   4.2365   4.2395   4.2422   4.2423   4.2428
     4.2527   4.2627   4.2654   4.2657   4.2879   4.2885   4.2948   4.2996
     4.3000   4.3197   4.3200   4.3263   4.3284   4.3324   4.3412   4.3415
     4.3587   4.3602   4.3654   4.3655   4.3793   4.3796   4.3901   4.3902
     4.3925   4.3937   4.3970   4.3972   4.4068   4.4092   4.4096   4.4181
     4.4230   4.4233   4.4281   4.4310   4.4310   4.4426   4.4428   4.4477
     4.4579   4.4580   4.4734   4.4735   4.4785   4.4866   4.4867   4.5031
     4.5059   4.5059   4.5241   4.5244   4.5286   4.5300   4.5320   4.5324
     4.5354   4.5355   4.5387   4.5417   4.5418   4.5432   4.5492   4.5493
     4.5503   4.5608   4.5609   4.5703   4.5705   4.5717   4.5780   4.5817
     4.5840   4.5840   4.5863   4.5863   4.5865   4.5890   4.5908   4.5967
     4.5969   4.6094   4.6145   4.6147   4.6161   4.6178   4.6180   4.6304
     4.6385   4.6388   4.6447   4.6450   4.6450   4.6507   4.6518   4.6519
     4.6550   4.6553   4.6578   4.6615   4.6625   4.6629   4.6641   4.6645
     4.6679   4.6680   4.6748   4.6766   4.6767   4.6785   4.6827   4.6829
     4.6833   4.6865   4.6867   4.6871   4.6896   4.6915   4.6917   4.6933
     4.6934   4.7011   4.7019   4.7020   4.7023   4.7031   4.7078   4.7080
     4.7137   4.7157   4.7159   4.7226   4.7228   4.7279   4.7410   4.7410
     4.7469   4.7587   4.7688   4.7688   4.7724   4.7856   4.7858   4.7973
     4.7974   4.8010   4.8015   4.8016   4.8063   4.8387   4.8502   4.8512
     4.8514   4.8648   4.8648   4.8749   4.8757   4.8899   4.8917   4.8928
     4.8930   4.8962   4.8964   4.9101   4.9101   4.9118   4.9174   4.9176
     4.9176   4.9185   4.9257   4.9258   4.9274   4.9320   4.9327   4.9332
     4.9436   4.9486   4.9491   4.9502   4.9502   4.9652   4.9652   4.9689
     4.9690   4.9699   4.9735   4.9749   4.9785   4.9790   4.9800   4.9802
     4.9946   4.9949   5.0134   5.0312   5.0312   5.0361   5.0514   5.0519
     5.0765   5.1082   5.1085   5.1126   5.1217   5.1218   5.1344   5.1344
     5.1349   5.1512   5.1516   5.1599   5.1793   5.1809   5.1954   5.2044
     5.2422   5.2425   5.2460   5.2466   5.2548   5.2850   5.2992   5.3004
     5.3031   5.3083   5.3086   5.3243   5.3270   5.3370   5.3374   5.3565
     5.3569   5.3675   5.3754   5.3759   5.3883   5.3989   5.3989   5.4209
     5.4215   5.4296   5.4354   5.4356   5.4370   5.4493   5.4494   5.4519
     5.4583   5.4585   5.4694   5.4695   5.4768   5.4878   5.4879   5.4882
     5.4966   5.4970   5.4971   5.5004   5.5004   5.5027   5.5086   5.5088
     5.5163   5.5195   5.5197   5.5216   5.5259   5.5348   5.5354   5.5355
     5.5416   5.5426   5.5426   5.5471   5.5477   5.5499   5.5501   5.5507
     5.5511   5.5527   5.5529   5.5535   5.5535   5.5667   5.5721   5.5723
     5.5729   5.5794   5.5833   5.5835   5.5896   5.5896   5.5927   5.5929
     5.5966   5.6114   5.6115   5.6137   5.6157   5.6158   5.6184   5.6249
     5.6254   5.6290   5.6322   5.6322   5.6377   5.6384   5.6387   5.6474
     5.6479   5.6482   5.6506   5.6527   5.6527   5.6543   5.6609   5.6609
     5.6628   5.6683   5.6683   5.6687   5.6709   5.6758   5.6760   5.6820
     5.6822   5.6854   5.6854   5.6926   5.6954   5.6955   5.7031   5.7032
     5.7046   5.7049   5.7051   5.7105   5.7105   5.7123   5.7153   5.7153
     5.7155   5.7204   5.7205   5.7211   5.7223   5.7270   5.7288   5.7289
     5.7327   5.7347   5.7348   5.7375   5.7387   5.7390   5.7395   5.7449
     5.7485   5.7486   5.7509   5.7509   5.7659   5.7661   5.7682   5.7739
     5.7741   5.7875   5.7898   5.7901   5.7986   5.8011   5.8011   5.8056
     5.8103   5.8104   5.8394   5.8490   5.8491   5.8492   5.8563   5.8566
     5.8566   5.8675   5.8796   5.8797   5.8826   5.8837   5.8839   5.9060
     5.9061   5.9117   5.9118   5.9283   5.9501   5.9504   5.9537   5.9782
     5.9786   5.9792   5.9837   6.0081   6.0085   6.0087   6.0181   6.0183
     6.0268   6.0582   6.0585   6.0846   6.0949   6.1066   6.1067   6.1605
     6.1609   6.1764   6.1946   6.2049   6.2052   6.2166   6.2195   6.2260
     6.3069   6.3073   6.3264   6.3264   6.3332   6.3398   6.3595   6.3597
     6.3614   6.3628   6.3952   6.3954   6.4078   6.4229   6.4259   6.4259
     6.4383   6.4383   6.4880   6.5088   6.5089   6.5367   6.5382   6.5634
     6.7041   6.7044   6.7238   6.7557   6.7579   6.7815   6.7838   6.7839
     6.8075   6.8075   6.8350   6.8351   6.8491   6.8539   6.8788   6.8791
     6.9086   6.9088   6.9570   6.9577   6.9842   7.0203   7.0219   7.0221
     7.0370   7.0370   7.0414   7.0573   7.0601   7.0837   7.0842   7.1412
     7.1505   7.1511   7.1581   7.2037   7.2038   7.2419   7.2420   7.2461
     7.3256   7.3256   7.3554   7.3746   7.3876   7.3883   7.3910   7.3911
     7.3962   7.4276   7.4451   7.4452   7.4521   7.4673   7.4689   7.4690
     7.4779   7.4831   7.4834   7.5338   7.5803   7.5807   7.6286   7.6340
     7.6342   7.7038   7.7038   7.7120   7.7192   7.7192   7.7309   7.7311
     7.7331   7.7356   7.7588   7.7972   7.7977   7.8784   7.8786   7.9450
     7.9460   7.9906   8.0469   8.0470   8.0584   8.0813   8.0813   8.0846
     8.0925   8.1183   8.1185   8.1227   8.1229   8.1362   8.1553   8.1555
     8.1559   8.1564   8.1699   8.1702   8.1746   8.1909   8.1921   8.1923
     8.2052   8.2102   8.2105   8.2361   8.2417   8.2418   8.2934   8.2936
     8.2939   8.3052   8.3217   8.3219   8.3429   8.3433   8.3510   8.3664
     8.3668   8.3790   8.3792   8.3994   8.4196   8.4197   8.4207   8.4264
     8.4490   8.4491   8.4583   8.5047   8.5050   8.5096   8.5313   8.5548
     8.5567   8.5570   8.5965   8.5969   8.6264   8.7109   8.7110   8.7191
     8.7277   8.7279   8.7492   8.7584   8.7585   8.7815   8.7897   8.8039
     8.8049   8.8050   8.8231   8.8233   8.8335   8.8335   8.8337   8.8371
     8.8455   8.8455   8.8485   8.8571   8.8573   8.8585   8.8601   8.8734
     8.8735   8.8796   8.9000   8.9001   8.9015   8.9362   8.9366   8.9861
     8.9974   8.9976   9.0049   9.0070   9.0120   9.0120   9.0121   9.0251
     9.0255   9.0311   9.0313   9.0837   9.0837   9.1107   9.1417   9.1417
     9.1853   9.1916   9.2150   9.2151   9.2291   9.2293   9.2686   9.2688
     9.2789   9.2793   9.2856   9.2859   9.2978   9.3011   9.3389   9.3423
     9.3425   9.3613   9.3616   9.3669   9.3828   9.3950   9.3951   9.3984
     9.4353   9.4580   9.4582   9.4602   9.4605   9.5120   9.5120   9.5639
     9.5640   9.5839   9.6092   9.6094   9.6478   9.6581   9.6581   9.6649
     9.7877   9.7947   9.7949   9.8523   9.8525   9.9538  10.0552  10.0552
    11.0298  11.0314  11.0801  12.1963  12.5195  12.6298  12.6346  12.6895
    13.1496  13.1512  13.3589  13.3591  13.3865  13.5492  13.8840  13.8848
    13.9064  14.0417  14.0429  14.0561

     occupation numbers 
     1.0000   1.0000   1.0000   1.0000   1.0000   1.0000   1.0000   1.0000
     1.0000   1.0000   1.0000   1.0000   1.0000   1.0000   1.0000   1.0000
     1.0000   1.0000   1.0000   1.0000   1.0000   1.0000   1.0000   1.0000
     1.0000   1.0000   1.0000   1.0000   1.0000   1.0000   1.0000   1.0000
     1.0000   1.0000   1.0000   1.0000   1.0000   1.0000   1.0000   1.0000
     1.0000   1.0000   1.0000   1.0000   1.0000   1.0000   1.0000   1.0000
     1.0000   1.0000   1.0000   1.0000   1.0000   1.0000   1.0000   1.0000
     1.0000   1.0000   1.0000   1.0000   1.0000   1.0000   1.0000   1.0000
     1.0000   1.0000   1.0000   1.0000   1.0000   1.0000   1.0000   1.0000
     1.0000   1.0000   1.0000   1.0000   1.0000   1.0000   1.0000   1.0000
     1.0000   1.0000   1.0000   1.0000   1.0000   1.0000   1.0000   1.0000
     1.0000   1.0000   1.0000   1.0000   1.0000   1.0000   1.0000   1.0000
     1.0000   1.0000   1.0000   1.0000   1.0000   1.0000   1.0000   1.0000
     1.0000   1.0000   1.0000   1.0000   1.0000   1.0000   1.0000   1.0000
     1.0000   1.0000   1.0000   1.0000   1.0000   1.0000   1.0000   1.0000
     1.0000   1.0000   1.0000   1.0000   1.0000   1.0000   1.0000   1.0000
     1.0000   1.0000   1.0000   1.0000   1.0000   1.0000   1.0000   1.0000
     1.0000   1.0000   1.0000   1.0000   1.0000   1.0000   1.0000   1.0000
     1.0000   1.0000   1.0000   1.0000   1.0000   1.0000   1.0000   1.0000
     1.0000   1.0000   1.0000   1.0000   1.0000   1.0000   1.0000   1.0000
     1.0000   1.0000   1.0000   1.0000   1.0000   1.0000   1.0000   1.0000
     1.0000   1.0000   1.0000   1.0000   1.0000   1.0000   1.0000   1.0000
     1.0000   1.0000   1.0000   1.0000   1.0000   1.0000   1.0000   1.0000
     1.0000   1.0000   1.0000   1.0000   1.0000   1.0000   1.0000   1.0000
     1.0000   1.0000   1.0000   1.0000   1.0000   1.0000   1.0000   1.0000
     1.0000   1.0000   1.0000   1.0000   1.0000   1.0000   1.0000   1.0000
     1.0000   1.0000   1.0000   1.0000   1.0000   1.0000   1.0000   1.0000
     1.0000   1.0000   1.0000   1.0000   1.0000   1.0000   1.0000   1.0000
     1.0000   1.0000   1.0000   1.0000   1.0000   1.0000   1.0000   1.0000
     1.0000   1.0000   1.0000   1.0000   1.0000   1.0000   1.0000   1.0000
     1.0000   1.0000   1.0000   1.0000   1.0000   1.0000   1.0000   1.0000
     1.0000   1.0000   1.0000   1.0000   1.0000   1.0000   1.0000   1.0000
     1.0000   1.0000   1.0000   1.0000   1.0000   1.0000   1.0000   1.0000
     1.0000   1.0000   1.0000   1.0000   1.0000   1.0000   1.0000   1.0000
     1.0000   1.0000   1.0000   1.0000   1.0000   1.0000   1.0000   1.0000
     1.0000   1.0000   1.0000   1.0000   1.0000   1.0000   1.0000   1.0000
     1.0000   1.0000   1.0000   1.0000   1.0000   1.0000   1.0000   1.0000
     1.0000   1.0000   1.0000   1.0000   1.0000   1.0000   1.0000   1.0000
     1.0000   1.0000   1.0000   1.0000   1.0000   1.0000   1.0000   1.0000
     1.0000   1.0000   1.0000   1.0000   1.0000   1.0000   1.0000   1.0000
     1.0000   1.0000   1.0000   1.0000   1.0000   1.0000   1.0000   1.0000
     1.0000   1.0000   1.0000   1.0000   1.0000   1.0000   1.0000   1.0000
     1.0000   1.0000   1.0000   1.0000   1.0000   1.0000   1.0000   1.0000
     1.0000   1.0000   1.0000   1.0000   1.0000   1.0000   1.0000   1.0000
     1.0000   1.0000   1.0000   1.0000   1.0000   1.0000   1.0000   1.0000
     1.0000   1.0000   1.0000   1.0000   1.0000   1.0000   1.0000   1.0000
     1.0000   1.0000   1.0000   1.0000   1.0000   1.0000   1.0000   1.0000
     1.0000   1.0000   1.0000   1.0000   1.0000   1.0000   1.0000   1.0000
     1.0000   1.0000   1.0000   1.0000   1.0000   1.0000   1.0000   1.0000
     1.0000   1.0000   1.0000   1.0000   1.0000   1.0000   1.0000   1.0000
     1.0000   1.0000   1.0000   1.0000   1.0000   1.0000   1.0000   1.0000
     1.0000   1.0000   1.0000   1.0000   1.0000   1.0000   1.0000   1.0000
     1.0000   1.0000   1.0000   1.0000   1.0000   1.0000   1.0000   1.0000
     1.0000   1.0000   1.0000   1.0000   1.0000   1.0000   1.0000   1.0000
     1.0000   1.0000   1.0000   1.0000   1.0000   1.0000   1.0000   1.0000
     1.0000   1.0000   1.0000   1.0000   1.0000   1.0000   1.0000   1.0000
     1.0000   1.0000   1.0000   1.0000   1.0000   1.0000   1.0000   1.0000
     1.0000   1.0000   1.0000   1.0000   1.0000   1.0000   1.0000   1.0000
     1.0000   1.0000   1.0000   1.0000   1.0000   1.0000   1.0000   1.0000
     1.0000   1.0000   1.0000   1.0000   1.0000   1.0000   1.0000   1.0000
     1.0000   1.0000   1.0000   1.0000   1.0000   1.0000   1.0000   1.0000
     1.0000   1.0000   1.0000   1.0000   1.0000   1.0000   1.0000   1.0000
     1.0000   1.0000   1.0000   1.0000   1.0000   1.0000   1.0000   1.0000
     1.0000   1.0000   1.0000   1.0000   1.0000   1.0000   1.0000   1.0000
     1.0000   1.0000   1.0000   1.0000   1.0000   1.0000   1.0000   1.0000
     1.0000   1.0000   1.0000   1.0000   1.0000   1.0000   1.0000   1.0000
     1.0000   1.0000   1.0000   1.0000   1.0000   1.0000   1.0000   1.0000
     1.0000   1.0000   1.0000   1.0000   1.0000   1.0000   1.0000   1.0000
     1.0000   1.0000   1.0000   1.0000   1.0000   1.0000   1.0000   1.0000
     1.0000   1.0000   1.0000   1.0000   1.0000   1.0000   1.0000   1.0000
     1.0000   1.0000   1.0000   1.0000   1.0000   1.0000   1.0000   1.0000
     1.0000   1.0000   1.0000   1.0000   1.0000   1.0000   1.0000   1.0000
     1.0000   1.0000   1.0000   1.0000   1.0000   1.0000   1.0000   1.0000
     1.0000   1.0000   1.0000   1.0000   1.0000   1.0000   1.0000   1.0000
     1.0000   1.0000   1.0000   1.0000   1.0000   1.0000   1.0000   1.0000
     1.0000   1.0000   1.0000   1.0000   1.0000   1.0000   1.0000   1.0000
     1.0000   1.0000   1.0000   1.0000   1.0000   1.0000   1.0000   1.0000
     1.0000   1.0000   1.0000   1.0000   1.0000   1.0000   1.0000   1.0000
     1.0000   1.0000   1.0000   1.0000   1.0000   1.0000   1.0000   1.0000
     1.0000   1.0000   1.0000   1.0000   1.0000   1.0000   1.0000   1.0000
     1.0000   1.0000   1.0000   1.0000   1.0000   1.0000   1.0000   1.0000
     1.0000   1.0000   1.0000   1.0000   1.0000   1.0000   1.0000   1.0000
     1.0000   1.0000   1.0000   1.0000   1.0000   1.0000   1.0000   1.0000
     1.0000   1.0000   1.0000   1.0000   1.0000   1.0000   1.0000   1.0000
     1.0000   1.0000   1.0000   1.0000   1.0000   1.0000   1.0000   1.0000
     1.0000   1.0000   1.0000   1.0000   1.0000   1.0000   1.0000   1.0000
     1.0000   1.0000   1.0000   1.0000   1.0000   1.0000   1.0000   1.0000
     1.0000   1.0000   1.0000   1.0000   1.0000   1.0000   1.0000   1.0000
     1.0000   1.0000   1.0000   1.0000   1.0000   1.0000   1.0000   1.0000
     1.0000   1.0000   1.0000   1.0000   1.0000   1.0000   1.0000   1.0000
     1.0000   1.0000   1.0000   1.0000   1.0000   1.0000   1.0000   1.0000
     1.0000   1.0000   1.0000   1.0000   1.0000   1.0000   1.0000   1.0000
     1.0000   1.0000   1.0000   1.0000   1.0000   1.0000   1.0000   1.0000
     1.0000   1.0000   1.0000   1.0000   1.0000   1.0000   1.0000   1.0000
     1.0000   1.0000   1.0000   1.0000   1.0000   1.0000   1.0000   1.0000
     1.0000   1.0000   1.0000   1.0000   1.0000   1.0000   1.0000   1.0000
     1.0000   1.0000   1.0000   1.0000   1.0000   1.0000   1.0000   1.0000
     1.0000   1.0000   1.0000   1.0000   1.0000   1.0000   1.0000   1.0000
     1.0000   1.0000   1.0000   1.0000   1.0000   1.0000   1.0000   1.0000
     1.0000   1.0000   1.0000   1.0000   1.0000   1.0000   1.0000   1.0000
     1.0000   1.0000   1.0000   1.0000   1.0000   1.0000   1.0000   1.0000
     1.0000   1.0000   1.0000   1.0000   1.0000   1.0000   1.0000   1.0000
     1.0000   1.0000   1.0000   1.0000   1.0000   1.0000   1.0000   1.0000
     1.0000   1.0000   1.0000   1.0000   1.0000   1.0000   1.0000   1.0000
     1.0000   1.0000   1.0000   1.0000   1.0000   1.0000   1.0000   1.0000
     1.0000   1.0000   1.0000   1.0000   1.0000   1.0000   1.0000   1.0000
     1.0000   1.0000   1.0000   1.0000   1.0000   1.0000   1.0000   1.0000
     1.0000   1.0000   1.0000   1.0000   1.0000   1.0000   1.0000   1.0000
     1.0000   1.0000   1.0000   1.0000   1.0000   1.0000   1.0000   1.0000
     1.0000   1.0000   1.0000   1.0000   1.0000   1.0000   1.0000   1.0000
     1.0000   1.0000   1.0000   1.0000   1.0000   1.0000   1.0000   1.0000
     1.0000   1.0000   1.0000   1.0000   1.0000   1.0000   1.0000   1.0000
     1.0000   1.0000   1.0000   1.0000   1.0000   1.0000   1.0000   1.0000
     1.0000   1.0000   1.0000   1.0000   1.0000   1.0000   1.0000   1.0000
     1.0000   1.0000   1.0000   1.0000   1.0000   1.0000   1.0000   1.0000
     1.0000   1.0000   1.0000   1.0000   1.0000   1.0000   1.0000   1.0000
     1.0000   1.0000   1.0000   1.0000   1.0000   1.0000   1.0000   1.0000
     1.0000   1.0000   1.0000   1.0000   1.0000   1.0000   1.0000   1.0000
     1.0000   1.0000   1.0000   1.0000   1.0000   1.0000   1.0000   1.0000
     1.0000   1.0000   1.0000   1.0000   1.0000   1.0000   1.0000   1.0000
     1.0000   1.0000   1.0000   1.0000   1.0000   1.0000   1.0000   1.0000
     1.0000   1.0000   1.0000   1.0000   1.0000   1.0000   1.0000   1.0000
     1.0000   1.0000   1.0000   1.0000   1.0000   1.0000   1.0000   1.0000
     1.0000   1.0000   1.0000   1.0000   1.0000   1.0000   1.0000   1.0000
     1.0000   1.0000   1.0000   1.0000   1.0000   1.0000   1.0000   1.0000
     1.0000   1.0000   1.0000   1.0000   1.0000   1.0000   1.0000   1.0000
     1.0000   1.0000   1.0000   1.0000   1.0000   1.0000   1.0000   1.0000
     1.0000   1.0000   1.0000   1.0000   1.0000   1.0000   1.0000   1.0000
     1.0000   1.0000   1.0000   1.0000   1.0000   1.0000   1.0000   1.0000
     1.0000   1.0000   1.0000   1.0000   1.0000   1.0000   1.0000   1.0000
     1.0000   1.0000   1.0000   1.0000   1.0000   1.0000   1.0000   1.0000
     1.0000   1.0000   1.0000   1.0000   1.0000   1.0000   1.0000   1.0000
     1.0000   1.0000   1.0000   1.0000   1.0000   1.0000   1.0000   1.0000
     1.0000   1.0000   1.0000   1.0000   1.0000   1.0000   1.0000   1.0000
     1.0000   1.0000   1.0000   1.0000   1.0000   1.0000   1.0000   1.0000
     1.0000   1.0000   1.0000   1.0000   1.0000   1.0000   1.0000   1.0000
     1.0000   1.0000   1.0000   1.0000   1.0000   1.0000   1.0000   1.0000
     1.0000   1.0000   1.0000   1.0000   1.0000   1.0000   1.0000   1.0000
     1.0000   1.0000   1.0000   1.0000   1.0000   1.0000   1.0000   1.0000
     1.0000   1.0000   1.0000   1.0000   1.0000   1.0000   1.0000   1.0000
     1.0000   1.0000   1.0000   1.0000   1.0000   1.0000   1.0000   1.0000
     1.0000   1.0000   1.0000   1.0000   1.0000   1.0000   1.0000   1.0000
     1.0000   1.0000   1.0000   1.0000   1.0000   1.0000   1.0000   1.0000
     1.0000   1.0000   1.0000   1.0000   1.0000   1.0000   1.0000   1.0000
[...]
     2.7634   2.7662   2.7663   2.7665   2.7669   2.7704   2.7707   2.7744
     2.7747   2.7747   2.7853   2.7892   2.7913   2.7915   2.7965   2.7965
     2.7987   2.8039   2.8039   2.8101   2.8103   2.8167   2.8202   2.8203
     2.8238   2.8281   2.8282   2.8285   2.8291   2.8292   2.8333   2.8349
     2.8352   2.8464   2.8472   2.8472   2.8517   2.8528   2.8529   2.8581
     2.8581   2.8632   2.8633   2.8657   2.8673   2.8673   2.8679   2.8682
     2.8699   2.8699   2.8738   2.8833   2.8834   2.8838   2.8922   2.8932
     2.8933   2.8946   2.8979   2.8980   2.9014   2.9014   2.9215   2.9216
     2.9323   2.9364   2.9364   2.9387   2.9512   2.9531   2.9531   2.9601
     2.9846   2.9847   3.0004   3.0061   3.0061   3.0068   3.0375   3.0376
     3.0399   3.0503   3.0511   3.0541   3.0541   3.0767   3.0767   3.0817
     3.0820   3.1155   3.1157   3.1371   3.1741   3.1766   3.1775   3.1776
     3.1964   3.1965   3.4186   3.8346   3.8351   3.9011   3.9011   3.9223
     3.9387   3.9836   3.9913   3.9913   4.0061   4.0062   4.0119   4.0303
     4.0805   4.0808   4.2085   4.2099   4.2218   4.2582   4.2796   4.2800
     4.2963   4.2967   4.3380   4.3701   4.3958   4.3959   4.4035   4.4136
     4.4139   4.4279   4.4430   4.4432   4.4692   4.4863   4.4904   4.4905
     4.5041   4.5043   4.5402   4.5813   4.5824   4.7174   4.7177   4.7400
     4.7722   4.7728   4.7751   4.7754   4.7850   4.7977   4.7978   4.8187
     4.8357   4.8357   4.8879   4.8880   4.8986   4.9044   4.9443   4.9443
     4.9701   4.9703   5.0316   5.0426   5.0496   5.0497   5.0593   5.0594
     5.0730   5.0730   5.0862   5.0885   5.1320   5.2754   5.2768   5.4571
     5.4576   5.5014   5.5110   5.5497   5.5503   5.5509   5.5891   5.5894
     5.6553   5.6556   5.6558   5.6621   5.6857   5.6859   5.6931   5.7157
     5.7162   5.7639   5.7677   5.7681   5.7848   5.7902   5.7903   5.7912
     5.7989   5.7990   5.8062   5.8135   5.8776   5.8778   5.8927   5.9265
     5.9267   5.9735   5.9736   5.9827   5.9870   5.9871   5.9938   6.0234
     6.0436   6.0440   6.1428   6.1438   6.1588   6.3024   6.3029   6.3715
     6.3721   6.4050   6.4715   6.4715   6.4976   6.5017   6.5168   6.5169
     6.5279   6.5415   6.5418   6.5505   6.5506   6.5515   6.5694   6.5696
     6.5703   6.5747   6.5820   6.5822   6.5933   6.5945   6.6074   6.6075
     6.6170   6.6172   6.6179   6.6257   6.6283   6.6284   6.6778   6.6794
     6.6794   6.6965   6.7098   6.7099   6.7266   6.7474   6.7474   6.7817
     6.7817   6.7981   6.7984   6.7991   6.8199   6.8244   6.8346   6.8348
     6.8468   6.8468   6.8760   6.9425   6.9427   6.9498   6.9727   6.9960
     6.9964   7.0598   7.0606   7.0673   7.1219   7.1455   7.1460   7.1532
     7.1697   7.1751   7.1753   7.2031   7.2034   7.2368   7.2454   7.2457
     7.2460   7.2488   7.2731   7.2734   7.2928   7.2929   7.2951   7.3049
     7.3060   7.3061   7.3145   7.3175   7.3276   7.3278   7.3323   7.3561
     7.3561   7.3659   7.3890   7.3893   7.3941   7.4046   7.4049   7.4750
     7.4794   7.4807   7.4808   7.4912   7.4948   7.4948   7.5074   7.5142
     7.5143   7.5211   7.5214   7.5857   7.5858   7.6159   7.6410   7.6410
     7.6889   7.7063   7.7191   7.7194   7.7321   7.7322   7.7638   7.7639
     7.7711   7.7714   7.7877   7.7891   7.7891   7.7893   7.8446   7.8448
     7.8448   7.8658   7.8661   7.8744   7.8934   7.9022   7.9024   7.9056
     7.9642   7.9720   7.9722   7.9805   7.9807   8.0480   8.0484   8.0945
     8.0947   8.1144   8.1388   8.1390   8.1820   8.1902   8.1903   8.1973
     8.3430   8.3431   8.4030   8.4030   8.5067   8.6219   8.6219   9.4014
    11.4303  12.7834  12.9479  13.1854  13.1866  13.6402  13.7447  13.7448
    13.7883  13.9313  13.9316  13.9679  14.4706  14.4712  14.5011  14.5016
    14.5494  14.5531  14.6061  14.6682

     occupation numbers 
     1.0000   1.0000   1.0000   1.0000   1.0000   1.0000   1.0000   1.0000
     1.0000   1.0000   1.0000   1.0000   1.0000   1.0000   1.0000   1.0000
     1.0000   1.0000   1.0000   1.0000   1.0000   1.0000   1.0000   1.0000
     1.0000   1.0000   1.0000   1.0000   1.0000   1.0000   1.0000   1.0000
     1.0000   1.0000   1.0000   1.0000   1.0000   1.0000   1.0000   1.0000
     1.0000   1.0000   1.0000   1.0000   1.0000   1.0000   1.0000   1.0000
     1.0000   1.0000   1.0000   1.0000   1.0000   1.0000   1.0000   1.0000
     1.0000   1.0000   1.0000   1.0000   1.0000   1.0000   1.0000   1.0000
     1.0000   1.0000   1.0000   1.0000   1.0000   1.0000   1.0000   1.0000
     1.0000   1.0000   1.0000   1.0000   1.0000   1.0000   1.0000   1.0000
     1.0000   1.0000   1.0000   1.0000   1.0000   1.0000   1.0000   1.0000
     1.0000   1.0000   1.0000   1.0000   1.0000   1.0000   1.0000   1.0000
     1.0000   1.0000   1.0000   1.0000   1.0000   1.0000   1.0000   1.0000
     1.0000   1.0000   1.0000   1.0000   1.0000   1.0000   1.0000   1.0000
     1.0000   1.0000   1.0000   1.0000   1.0000   1.0000   1.0000   1.0000
     1.0000   1.0000   1.0000   1.0000   1.0000   1.0000   1.0000   1.0000
     1.0000   1.0000   1.0000   1.0000   1.0000   1.0000   1.0000   1.0000
     1.0000   1.0000   1.0000   1.0000   1.0000   1.0000   1.0000   1.0000
     1.0000   1.0000   1.0000   1.0000   1.0000   1.0000   1.0000   1.0000
     1.0000   1.0000   1.0000   1.0000   1.0000   1.0000   1.0000   1.0000
     1.0000   1.0000   1.0000   1.0000   1.0000   1.0000   1.0000   1.0000
     1.0000   1.0000   1.0000   1.0000   1.0000   1.0000   1.0000   1.0000
     1.0000   1.0000   1.0000   1.0000   1.0000   1.0000   1.0000   1.0000
     1.0000   1.0000   1.0000   1.0000   1.0000   1.0000   1.0000   1.0000
     1.0000   1.0000   1.0000   1.0000   1.0000   1.0000   1.0000   1.0000
     1.0000   1.0000   1.0000   1.0000   1.0000   1.0000   1.0000   1.0000
     1.0000   1.0000   1.0000   1.0000   1.0000   1.0000   1.0000   1.0000
     1.0000   1.0000   1.0000   1.0000   1.0000   1.0000   1.0000   1.0000
     1.0000   1.0000   1.0000   1.0000   1.0000   1.0000   1.0000   1.0000
     1.0000   1.0000   1.0000   1.0000   1.0000   1.0000   1.0000   1.0000
     1.0000   1.0000   1.0000   1.0000   1.0000   1.0000   1.0000   1.0000
     1.0000   1.0000   1.0000   1.0000   1.0000   1.0000   1.0000   1.0000
     1.0000   1.0000   1.0000   1.0000   1.0000   1.0000   1.0000   1.0000
     1.0000   1.0000   1.0000   1.0000   1.0000   1.0000   1.0000   1.0000
     1.0000   1.0000   1.0000   1.0000   1.0000   1.0000   1.0000   1.0000
     1.0000   1.0000   1.0000   1.0000   1.0000   1.0000   1.0000   1.0000
     1.0000   1.0000   1.0000   1.0000   1.0000   1.0000   1.0000   1.0000
     1.0000   1.0000   1.0000   1.0000   1.0000   1.0000   1.0000   1.0000
     1.0000   1.0000   1.0000   1.0000   1.0000   1.0000   1.0000   1.0000
     1.0000   1.0000   1.0000   1.0000   1.0000   1.0000   1.0000   1.0000
     1.0000   1.0000   1.0000   1.0000   1.0000   1.0000   1.0000   1.0000
     1.0000   1.0000   1.0000   1.0000   1.0000   1.0000   1.0000   1.0000
     1.0000   1.0000   1.0000   1.0000   1.0000   1.0000   1.0000   1.0000
     1.0000   1.0000   1.0000   1.0000   1.0000   1.0000   1.0000   1.0000
     1.0000   1.0000   1.0000   1.0000   1.0000   1.0000   1.0000   1.0000
     1.0000   1.0000   1.0000   1.0000   1.0000   1.0000   1.0000   1.0000
     1.0000   1.0000   1.0000   1.0000   1.0000   1.0000   1.0000   1.0000
     1.0000   1.0000   1.0000   1.0000   1.0000   1.0000   1.0000   1.0000
     1.0000   1.0000   1.0000   1.0000   1.0000   1.0000   1.0000   1.0000
     1.0000   1.0000   1.0000   1.0000   1.0000   1.0000   1.0000   1.0000
     1.0000   1.0000   1.0000   1.0000   1.0000   1.0000   1.0000   1.0000
     1.0000   1.0000   1.0000   1.0000   1.0000   1.0000   1.0000   1.0000
     1.0000   1.0000   1.0000   1.0000   1.0000   1.0000   1.0000   1.0000
     1.0000   1.0000   1.0000   1.0000   1.0000   1.0000   1.0000   1.0000
     1.0000   1.0000   1.0000   1.0000   1.0000   1.0000   1.0000   1.0000
     1.0000   1.0000   1.0000   1.0000   1.0000   1.0000   1.0000   1.0000
     1.0000   1.0000   1.0000   1.0000   1.0000   1.0000   1.0000   1.0000
     1.0000   1.0000   1.0000   1.0000   1.0000   1.0000   1.0000   1.0000
     1.0000   1.0000   1.0000   1.0000   1.0000   1.0000   1.0000   1.0000
     1.0000   1.0000   1.0000   1.0000   1.0000   1.0000   1.0000   1.0000
     1.0000   1.0000   1.0000   1.0000   1.0000   1.0000   1.0000   1.0000
     1.0000   1.0000   1.0000   1.0000   1.0000   1.0000   1.0000   1.0000
     1.0000   1.0000   1.0000   1.0000   1.0000   1.0000   1.0000   1.0000
     1.0000   1.0000   1.0000   1.0000   1.0000   1.0000   1.0000   1.0000
     1.0000   1.0000   1.0000   1.0000   1.0000   1.0000   1.0000   1.0000
     1.0000   1.0000   1.0000   1.0000   1.0000   1.0000   1.0000   1.0000
     1.0000   1.0000   1.0000   1.0000   1.0000   1.0000   1.0000   1.0000
     1.0000   1.0000   1.0000   1.0000   1.0000   1.0000   1.0000   1.0000
     1.0000   1.0000   1.0000   1.0000   1.0000   1.0000   1.0000   1.0000
     1.0000   1.0000   1.0000   1.0000   1.0000   1.0000   1.0000   1.0000
     1.0000   1.0000   1.0000   1.0000   1.0000   1.0000   1.0000   1.0000
     1.0000   1.0000   1.0000   1.0000   1.0000   1.0000   1.0000   1.0000
     1.0000   1.0000   1.0000   1.0000   1.0000   1.0000   1.0000   1.0000
     1.0000   1.0000   1.0000   1.0000   1.0000   1.0000   1.0000   1.0000
     1.0000   1.0000   1.0000   1.0000   1.0000   1.0000   1.0000   1.0000
     1.0000   1.0000   1.0000   1.0000   1.0000   1.0000   1.0000   1.0000
     1.0000   1.0000   1.0000   1.0000   1.0000   1.0000   1.0000   1.0000
     1.0000   1.0000   1.0000   1.0000   1.0000   1.0000   1.0000   1.0000
     1.0000   1.0000   1.0000   1.0000   1.0000   1.0000   1.0000   1.0000
     1.0000   1.0000   1.0000   1.0000   1.0000   1.0000   1.0000   1.0000
     1.0000   1.0000   1.0000   1.0000   1.0000   1.0000   1.0000   1.0000
     1.0000   1.0000   1.0000   1.0000   1.0000   1.0000   1.0000   1.0000
     1.0000   1.0000   1.0000   1.0000   1.0000   1.0000   1.0000   1.0000
     1.0000   1.0000   1.0000   1.0000   1.0000   1.0000   1.0000   1.0000
     1.0000   1.0000   1.0000   1.0000   1.0000   1.0000   1.0000   1.0000
     1.0000   1.0000   1.0000   1.0000   1.0000   1.0000   1.0000   1.0000
     1.0000   1.0000   1.0000   1.0000   1.0000   1.0000   1.0000   1.0000
     1.0000   1.0000   1.0000   1.0000   1.0000   1.0000   1.0000   1.0000
     1.0000   1.0000   1.0000   1.0000   1.0000   1.0000   1.0000   1.0000
     1.0000   1.0000   1.0000   1.0000   1.0000   1.0000   1.0000   1.0000
     1.0000   1.0000   1.0000   1.0000   1.0000   1.0000   1.0000   1.0000
     1.0000   1.0000   1.0000   1.0000   1.0000   1.0000   1.0000   1.0000
     1.0000   1.0000   1.0000   1.0000   1.0000   1.0000   1.0000   1.0000
     1.0000   1.0000   1.0000   1.0000   1.0000   1.0000   1.0000   1.0000
     1.0000   1.0000   1.0000   1.0000   1.0000   1.0000   1.0000   1.0000
     1.0000   1.0000   1.0000   1.0000   1.0000   1.0000   1.0000   1.0000
     1.0000   1.0000   1.0000   1.0000   1.0000   1.0000   1.0000   1.0000
     1.0000   1.0000   1.0000   1.0000   1.0000   1.0000   1.0000   1.0000
     1.0000   1.0000   1.0000   1.0000   1.0000   1.0000   1.0000   1.0000
     1.0000   1.0000   1.0000   1.0000   1.0000   1.0000   1.0000   1.0000
     1.0000   1.0000   1.0000   1.0000   1.0000   1.0000   1.0000   1.0000
     1.0000   1.0000   1.0000   1.0000   1.0000   1.0000   1.0000   1.0000
     1.0000   1.0000   1.0000   1.0000   1.0000   1.0000   1.0000   1.0000
     1.0000   1.0000   1.0000   1.0000   1.0000   1.0000   1.0000   1.0000
     1.0000   1.0000   1.0000   1.0000   1.0000   1.0000   1.0000   1.0000
     1.0000   1.0000   1.0000   1.0000   1.0000   1.0000   1.0000   1.0000
     1.0000   1.0000   1.0000   1.0000   1.0000   1.0000   1.0000   1.0000
     1.0000   1.0000   1.0000   1.0000   1.0000   1.0000   1.0000   1.0000
     1.0000   1.0000   1.0000   1.0000   1.0000   1.0000   1.0000   1.0000
     1.0000   1.0000   1.0000   1.0000   1.0000   1.0000   1.0000   1.0000
     1.0000   1.0000   1.0000   1.0000   1.0000   1.0000   1.0000   1.0000
     1.0000   1.0000   1.0000   1.0000   1.0000   1.0000   1.0000   1.0000
     1.0000   1.0000   1.0000   1.0000   1.0000   1.0000   1.0000   1.0000
     1.0000   1.0000   1.0000   1.0000   1.0000   1.0000   1.0000   1.0000
     1.0000   1.0000   1.0000   1.0000   1.0000   1.0000   1.0000   1.0000
     1.0000   1.0000   1.0000   1.0000   1.0000   1.0000   1.0000   1.0000
     1.0000   1.0000   1.0000   1.0000   1.0000   1.0000   1.0000   1.0000
     1.0000   1.0000   1.0000   1.0000   1.0000   1.0000   1.0000   1.0000
     1.0000   1.0000   1.0000   1.0000   1.0000   1.0000   1.0000   1.0000
     1.0000   1.0000   1.0000   1.0000   1.0000   1.0000   1.0000   1.0000
     1.0000   1.0000   1.0000   1.0000   1.0000   1.0000   1.0000   1.0000
     1.0000   1.0000   1.0000   1.0000   1.0000   1.0000   1.0000   1.0000
     1.0000   1.0000   1.0000   1.0000   1.0000   1.0000   1.0000   1.0000
     1.0000   1.0000   1.0000   1.0000   1.0000   1.0000   1.0000   1.0000
     1.0000   1.0000   1.0000   1.0000   1.0000   1.0000   1.0000   1.0000
     1.0000   1.0000   1.0000   1.0000   1.0000   1.0000   1.0000   1.0000
     1.0000   1.0000   1.0000   1.0000   1.0000   1.0000   1.0000   1.0000
     1.0000   1.0000   1.0000   1.0000   1.0000   1.0000   1.0000   1.0000
     1.0000   1.0000   1.0000   1.0000   1.0000   1.0000   1.0000   1.0000
     1.0000   1.0000   1.0000   1.0000   1.0000   1.0000   1.0000   1.0000
     1.0000   1.0000   1.0000   1.0000   1.0000   1.0000   1.0000   1.0000
     1.0000   1.0000   1.0000   1.0000   1.0000   1.0000   1.0000   1.0000
     1.0000   1.0000   1.0000   1.0000   1.0000   1.0000   1.0000   1.0000
     1.0000   1.0000   1.0000   1.0000   1.0000   1.0000   1.0000   1.0000
     1.0000   1.0000   1.0000   1.0000   1.0000   1.0000   1.0000   1.0000
     1.0000   1.0000   1.0000   1.0000   1.0000   1.0000   1.0000   1.0000
     1.0000   1.0000   1.0000   1.0000   1.0000   1.0000   1.0000   1.0000
     1.0000   1.0000   1.0000   1.0000   1.0000   1.0000   1.0000   1.0000
     1.0000   1.0000   1.0000   1.0000   1.0000   1.0000   1.0000   1.0000
     1.0000   1.0000   1.0000   1.0000   1.0000   1.0000   1.0000   1.0000
     1.0000   1.0000   1.0000   1.0000   1.0000   1.0000   1.0000   1.0000
     1.0000   1.0000   1.0000   1.0000   1.0000   1.0000   1.0000   1.0000
     1.0000   1.0000   1.0000   1.0000   1.0000   1.0000   1.0000   1.0000
     1.0000   1.0000   1.0000   1.0000   1.0000   1.0000   1.0000   1.0000
     1.0000   1.0000   1.0000   1.0000   1.0000   1.0000   1.0000   1.0000
     1.0000   1.0000   1.0000   1.0000   1.0000   1.0000   1.0000   1.0000
     1.0000   1.0000   1.0000   1.0000   1.0000   1.0000   1.0000   1.0000
     1.0000   1.0000   1.0000   1.0000   1.0000   1.0000   1.0000   1.0000
     1.0000   1.0000   1.0000   1.0000   1.0000   1.0000   1.0000   1.0000
     1.0000   1.0000   1.0000   1.0000   1.0000   1.0000   1.0000   1.0000
     1.0000   1.0000   1.0000   1.0000   1.0000   1.0000   1.0000   1.0000
     1.0000   1.0000   1.0000   1.0000   1.0000   1.0000   1.0000   1.0000
     1.0000   1.0000   1.0000   1.0000   1.0000   1.0000   1.0000   1.0000
     1.0000   1.0000   1.0000   1.0000   1.0000   1.0000   1.0000   1.0000
     1.0000   1.0000   1.0000   1.0000   1.0000   1.0000   1.0000   1.0000
     0.0000   0.0000   0.0000   0.0000   0.0000   0.0000   0.0000   0.0000
     0.0000   0.0000   0.0000   0.0000   0.0000   0.0000   0.0000   0.0000
     0.0000   0.0000   0.0000   0.0000

     the Fermi energy is    10.3467 ev

!    total energy              =  -41215.33553602 Ry
     estimated scf accuracy    <          5.5E-11 Ry
     smearing contrib. (-TS)   =      -0.00000000 Ry
     internal energy E=F+TS    =  -41215.33553602 Ry

     total magnetization       =     2.00 Bohr mag/cell
     absolute magnetization    =     2.34 Bohr mag/cell

     convergence has been achieved in   3 iterations

     Using ACE for calculation of exact exchange
     ACE projected onto  1260 (nbndproj) and applied to  1260 (nbnd) bands

!!   total energy              =  -41215.33553602 Ry
     Harris-Foulkes estimate   =  -41215.33553602 Ry
     est. exchange err (dexx)  =          9.4E-10 Ry
     - averaged Fock potential =    2541.93917179 Ry
     + Fock energy (ACE)       =   -1270.96958456 Ry

     EXX self-consistency reached

     Writing all to output data dir temp/pwscf.save/
 
     init_run     :     10.12s CPU     10.64s WALL (       1 calls)
     electrons    :   5167.44s CPU   5243.62s WALL (      31 calls)

     Called by init_run:
     aceinit0     :      0.00s CPU      0.00s WALL (       1 calls)
     wfcinit      :      4.99s CPU      5.40s WALL (       1 calls)
     wfcinit:atom :      0.07s CPU      0.12s WALL (       1 calls)
     wfcinit:wfcr :      4.03s CPU      4.22s WALL (       1 calls)
     potinit      :      1.75s CPU      1.81s WALL (       1 calls)
     hinit0       :      3.22s CPU      3.26s WALL (       1 calls)

     Called by electrons:
     c_bands      :   5000.59s CPU   5071.90s WALL (      96 calls)
     sum_band     :     75.89s CPU     76.56s WALL (      96 calls)
     v_of_rho     :     82.46s CPU     84.22s WALL (      97 calls)
     v_h          :      1.74s CPU      1.76s WALL (      97 calls)
     v_xc         :     80.71s CPU     82.44s WALL (      97 calls)
     mix_rho      :      2.76s CPU      3.13s WALL (      96 calls)

     Called by c_bands:
     init_us_2    :     19.06s CPU     19.34s WALL (     193 calls)
     init_us_2:cp :     19.06s CPU     19.34s WALL (     193 calls)
     regterg      :   4766.62s CPU   4837.00s WALL (      96 calls)

     Called by sum_band:
     sum_band:wei :      0.06s CPU      0.10s WALL (      96 calls)
     sum_band:loo :     61.86s CPU     62.13s WALL (      96 calls)
     sum_band:buf :      0.00s CPU      0.00s WALL (      96 calls)
     sum_band:ini :      9.49s CPU      9.56s WALL (      96 calls)

     Called by *egterg:
     rdiaghg      :   1135.46s CPU   1140.42s WALL (     503 calls)
     regterg:over :    245.84s CPU    247.53s WALL (     438 calls)
     regterg:upda :     93.91s CPU     98.71s WALL (     438 calls)
     regterg:last :    188.33s CPU    198.97s WALL (     209 calls)
     h_psi        :   2894.30s CPU   2914.43s WALL (     535 calls)
     g_psi        :      5.56s CPU      5.58s WALL (     438 calls)

     Called by h_psi:
     h_psi:calbec :    419.92s CPU    421.05s WALL (     535 calls)
     vloc_psi     :   1416.40s CPU   1421.98s WALL (     535 calls)
     add_vuspsi   :    421.37s CPU    422.69s WALL (     535 calls)

     General routines
     calbec       :    783.42s CPU    785.60s WALL (    1141 calls)
     fft          :     12.77s CPU     13.11s WALL (    1229 calls)
     ffts         :      0.90s CPU      0.91s WALL (      96 calls)
     fftw         :   1063.45s CPU   1067.53s WALL (  277384 calls)
     fftc         :  14996.94s CPU  15075.36s WALL ( 6083812 calls)
     fftcw        :     44.22s CPU     49.45s WALL (   26939 calls)
 
     Parallel routines

     EXX routines
     exx_grid     :      0.00s CPU      0.00s WALL (       1 calls)
     exxinit      :     94.30s CPU    112.96s WALL (      31 calls)
     vexx         :  25097.97s CPU  25270.32s WALL (      31 calls)
     matcalc      :    364.07s CPU    365.15s WALL (     606 calls)
     aceupdate    :     30.98s CPU     31.89s WALL (      31 calls)
     vexxace      :    853.10s CPU    868.82s WALL (     514 calls)
     aceinit      :  25159.49s CPU  25332.88s WALL (      31 calls)
 
     PWSCF        :      8h34m CPU      8h39m WALL

 
   This run was terminated on:   9:29: 2  14Dec2023            

=------------------------------------------------------------------------------=
   JOB DONE.
=------------------------------------------------------------------------------=
