  191  191   40    2
  0.1195271E+02  0.1299435E-08  0.1299435E-08  0.1561204E-08  0.2000000E-15
  1.000000000000000E-004
  CAR 
 zno                                     
   1714      1   1344
 
  0.0000000E+00  0.0000000E+00  0.0000000E+00  0.1000000E+01
      1        -21.130964      -21.128601   1.000000   1.000000
      2        -20.886839      -20.884128   1.000000   1.000000
      3        -20.885769      -20.883067   1.000000   1.000000
      4        -20.876700      -20.870481   1.000000   1.000000
      5        -20.725147      -20.725866   1.000000   1.000000
      6        -20.687745      -20.688165   1.000000   1.000000
      7        -20.683155      -20.668538   1.000000   1.000000
      8        -20.682725      -20.668174   1.000000   1.000000
      9        -20.636379      -20.626629   1.000000   1.000000
     10        -20.636350      -20.626534   1.000000   1.000000
     11        -20.552897      -20.555484   1.000000   1.000000
     12        -20.543028      -20.544086   1.000000   1.000000
     13        -20.483064      -20.476762   1.000000   1.000000
     14        -20.473127      -20.476695   1.000000   1.000000
     15        -20.473073      -20.475404   1.000000   1.000000
     16        -20.457562      -20.453824   1.000000   1.000000
     17        -20.456768      -20.453786   1.000000   1.000000
     18        -20.456698      -20.453293   1.000000   1.000000
     19        -20.446120      -20.437733   1.000000   1.000000
     20        -20.440029      -20.437327   1.000000   1.000000
     21        -20.439599      -20.417252   1.000000   1.000000
     22        -20.392310      -20.395752   1.000000   1.000000
     23        -20.392315      -20.395740   1.000000   1.000000
     24        -20.382473      -20.388472   1.000000   1.000000
     25        -20.355475      -20.362111   1.000000   1.000000
     26        -20.344522      -20.348842   1.000000   1.000000
     27        -20.324369      -20.318104   1.000000   1.000000
     28        -20.324413      -20.318175   1.000000   1.000000
     29        -20.289913      -20.292039   1.000000   1.000000
     30        -20.289489      -20.284857   1.000000   1.000000
     31        -20.287349      -20.284398   1.000000   1.000000
     32        -20.254913      -20.252924   1.000000   1.000000
     33        -20.254752      -20.252726   1.000000   1.000000
     34        -20.234125      -20.236079   1.000000   1.000000
     35        -20.231009      -20.235962   1.000000   1.000000
     36        -20.230736      -20.235779   1.000000   1.000000
     37        -20.201622      -20.205939   1.000000   1.000000
     38        -20.197925      -20.202949   1.000000   1.000000
     39        -20.189386      -20.192949   1.000000   1.000000
     40        -20.172533      -20.177799   1.000000   1.000000
     41        -20.172399      -20.177666   1.000000   1.000000
     42        -20.161179      -20.166330   1.000000   1.000000
     43        -20.161080      -20.166234   1.000000   1.000000
     44        -20.138517      -20.144446   1.000000   1.000000
     45        -20.138560      -20.144493   1.000000   1.000000
     46        -20.125316      -20.130236   1.000000   1.000000
     47        -20.120396      -20.125157   1.000000   1.000000
     48        -20.120287      -20.125049   1.000000   1.000000
     49        -20.111003      -20.116530   1.000000   1.000000
     50        -20.105969      -20.111696   1.000000   1.000000
     51        -20.097933      -20.103104   1.000000   1.000000
     52        -20.097847      -20.103029   1.000000   1.000000
     53        -20.093403      -20.099315   1.000000   1.000000
     54        -20.089646      -20.095126   1.000000   1.000000
     55        -20.083985      -20.088671   1.000000   1.000000
     56        -20.083872      -20.088556   1.000000   1.000000
     57        -20.077430      -20.083082   1.000000   1.000000
     58        -20.070685      -20.077185   1.000000   1.000000
     59        -20.070604      -20.077103   1.000000   1.000000
     60        -20.070472      -20.076961   1.000000   1.000000
     61        -20.060799      -20.064973   1.000000   1.000000
     62        -20.047976      -20.054127   1.000000   1.000000
     63        -20.047911      -20.054063   1.000000   1.000000
     64        -20.040259      -20.046409   1.000000   1.000000
     65        -20.040172      -20.046324   1.000000   1.000000
     66        -20.037317      -20.043637   1.000000   1.000000
     67        -19.998821      -20.004490   1.000000   1.000000
     68        -19.998819      -20.004487   1.000000   1.000000
     69        -19.992880      -19.999053   1.000000   1.000000
     70        -19.992181      -19.997559   1.000000   1.000000
     71        -19.992180      -19.997553   1.000000   1.000000
     72        -19.986767      -19.992747   1.000000   1.000000
     73        -19.980117      -19.986280   1.000000   1.000000
     74        -19.980054      -19.986216   1.000000   1.000000
     75        -19.968826      -19.975014   1.000000   1.000000
     76        -19.968693      -19.973935   1.000000   1.000000
     77        -19.965723      -19.971810   1.000000   1.000000
     78        -19.965725      -19.971811   1.000000   1.000000
     79        -19.941169      -19.947609   1.000000   1.000000
     80        -19.941131      -19.947571   1.000000   1.000000
     81        -19.926230      -19.933192   1.000000   1.000000
     82        -19.926222      -19.933193   1.000000   1.000000
     83        -19.923832      -19.930495   1.000000   1.000000
     84        -19.923739      -19.930390   1.000000   1.000000
     85        -19.920830      -19.927790   1.000000   1.000000
     86        -19.918153      -19.925129   1.000000   1.000000
     87        -19.884362      -19.891168   1.000000   1.000000
     88        -19.879159      -19.885838   1.000000   1.000000
     89        -19.879070      -19.885747   1.000000   1.000000
     90        -19.872022      -19.878599   1.000000   1.000000
     91        -19.844292      -19.851383   1.000000   1.000000
     92        -19.844162      -19.851252   1.000000   1.000000
     93        -19.841240      -19.848416   1.000000   1.000000
     94        -19.841279      -19.848454   1.000000   1.000000
     95        -19.837372      -19.844607   1.000000   1.000000
     96         -8.339225       -8.328768   1.000000   1.000000
     97         -8.329072       -8.319853   1.000000   1.000000
     98         -8.328841       -8.319610   1.000000   1.000000
     99         -8.300631       -8.292108   1.000000   1.000000
    100         -8.300158       -8.291627   1.000000   1.000000
    101         -8.254333       -8.233058   1.000000   1.000000
    102         -8.239266       -8.215237   1.000000   1.000000
    103         -8.206515       -8.197840   1.000000   1.000000
    104         -8.206253       -8.197499   1.000000   1.000000
    105         -8.199067       -8.183963   1.000000   1.000000
    106         -8.184761       -8.150132   1.000000   1.000000
    107         -8.184135       -8.149477   1.000000   1.000000
    108         -8.144476       -8.125608   1.000000   1.000000
    109         -8.143938       -8.125013   1.000000   1.000000
    110         -8.088039       -8.082118   1.000000   1.000000
    111         -8.045013       -8.040698   1.000000   1.000000
    112         -8.009022       -8.004588   1.000000   1.000000
    113         -8.008951       -8.004796   1.000000   1.000000
    114         -8.006803       -7.998435   1.000000   1.000000
    115         -8.006491       -7.998386   1.000000   1.000000
    116         -7.975175       -7.975685   1.000000   1.000000
    117         -7.971038       -7.969965   1.000000   1.000000
    118         -7.970530       -7.967510   1.000000   1.000000
    119         -7.970350       -7.967349   1.000000   1.000000
    120         -7.950425       -7.949106   1.000000   1.000000
    121         -7.950481       -7.949034   1.000000   1.000000
    122         -7.944040       -7.938170   1.000000   1.000000
    123         -7.917893       -7.919233   1.000000   1.000000
    124         -7.917944       -7.919274   1.000000   1.000000
    125         -7.897482       -7.895258   1.000000   1.000000
    126         -7.897543       -7.895294   1.000000   1.000000
    127         -7.888576       -7.886245   1.000000   1.000000
    128         -7.875873       -7.875099   1.000000   1.000000
    129         -7.875805       -7.875169   1.000000   1.000000
    130         -7.875138       -7.874988   1.000000   1.000000
    131         -7.874277       -7.873003   1.000000   1.000000
    132         -7.867994       -7.865760   1.000000   1.000000
    133         -7.848553       -7.847785   1.000000   1.000000
    134         -7.844718       -7.845978   1.000000   1.000000
    135         -7.844707       -7.845970   1.000000   1.000000
    136         -7.829990       -7.832072   1.000000   1.000000
    137         -7.829946       -7.832032   1.000000   1.000000
    138         -7.826814       -7.827816   1.000000   1.000000
    139         -7.815034       -7.813509   1.000000   1.000000
    140         -7.814985       -7.813482   1.000000   1.000000
    141         -7.810626       -7.811406   1.000000   1.000000
    142         -7.810566       -7.811355   1.000000   1.000000
    143         -7.809918       -7.809127   1.000000   1.000000
    144         -7.804431       -7.802904   1.000000   1.000000
    145         -7.804439       -7.802903   1.000000   1.000000
    146         -7.798791       -7.798542   1.000000   1.000000
    147         -7.798793       -7.798537   1.000000   1.000000
    148         -7.797008       -7.798253   1.000000   1.000000
    149         -7.784911       -7.785156   1.000000   1.000000
    150         -7.783380       -7.783025   1.000000   1.000000
    151         -7.771590       -7.766688   1.000000   1.000000
    152         -7.771402       -7.766566   1.000000   1.000000
    153         -7.765923       -7.766503   1.000000   1.000000
    154         -7.761761       -7.761846   1.000000   1.000000
    155         -7.761761       -7.761852   1.000000   1.000000
    156         -7.758156       -7.758909   1.000000   1.000000
    157         -7.758321       -7.756483   1.000000   1.000000
    158         -7.758364       -7.756546   1.000000   1.000000
    159         -7.756362       -7.753324   1.000000   1.000000
    160         -7.747779       -7.748841   1.000000   1.000000
    161         -7.747795       -7.748854   1.000000   1.000000
    162         -7.737852       -7.738349   1.000000   1.000000
    163         -7.737813       -7.738358   1.000000   1.000000
    164         -7.735157       -7.734574   1.000000   1.000000
    165         -7.735264       -7.734603   1.000000   1.000000
    166         -7.734060       -7.734844   1.000000   1.000000
    167         -7.732164       -7.733677   1.000000   1.000000
    168         -7.731186       -7.727985   1.000000   1.000000
    169         -7.731211       -7.727964   1.000000   1.000000
    170         -7.722339       -7.722996   1.000000   1.000000
    171         -7.713883       -7.715599   1.000000   1.000000
    172         -7.713794       -7.715517   1.000000   1.000000
    173         -7.713421       -7.713768   1.000000   1.000000
    174         -7.709981       -7.710671   1.000000   1.000000
    175         -7.710020       -7.710671   1.000000   1.000000
    176         -7.707606       -7.708875   1.000000   1.000000
    177         -7.702246       -7.702135   1.000000   1.000000
    178         -7.702217       -7.702104   1.000000   1.000000
    179         -7.694385       -7.693365   1.000000   1.000000
    180         -7.694326       -7.692162   1.000000   1.000000
    181         -7.693726       -7.692120   1.000000   1.000000
    182         -7.675427       -7.675266   1.000000   1.000000
    183         -7.675419       -7.675266   1.000000   1.000000
    184         -7.674408       -7.675247   1.000000   1.000000
    185         -7.669746       -7.669270   1.000000   1.000000
    186         -7.669716       -7.669246   1.000000   1.000000
    187         -7.668088       -7.667575   1.000000   1.000000
    188         -7.665493       -7.661379   1.000000   1.000000
    189         -7.660456       -7.661141   1.000000   1.000000
    190         -7.660500       -7.661201   1.000000   1.000000
    191         -7.656703       -7.656756   1.000000   1.000000
    192         -7.654217       -7.656029   1.000000   1.000000
    193         -7.650199       -7.648491   1.000000   1.000000
    194         -7.650181       -7.648480   1.000000   1.000000
    195         -7.636323       -7.635386   1.000000   1.000000
    196         -7.634707       -7.634555   1.000000   1.000000
    197         -7.634637       -7.634488   1.000000   1.000000
    198         -7.632867       -7.633457   1.000000   1.000000
    199         -7.632828       -7.633453   1.000000   1.000000
    200         -7.628937       -7.629274   1.000000   1.000000
    201         -7.627276       -7.627290   1.000000   1.000000
    202         -7.627201       -7.627239   1.000000   1.000000
    203         -7.620234       -7.621669   1.000000   1.000000
    204         -7.620156       -7.621592   1.000000   1.000000
    205         -7.615885       -7.617304   1.000000   1.000000
    206         -7.611397       -7.611107   1.000000   1.000000
    207         -7.611270       -7.610997   1.000000   1.000000
    208         -7.609554       -7.608492   1.000000   1.000000
    209         -7.607759       -7.607764   1.000000   1.000000
    210         -7.607779       -7.607519   1.000000   1.000000
    211         -7.606863       -7.607561   1.000000   1.000000
    212         -7.596698       -7.596693   1.000000   1.000000
    213         -7.591162       -7.588620   1.000000   1.000000
    214         -7.591093       -7.588531   1.000000   1.000000
    215         -7.588397       -7.588016   1.000000   1.000000
    216         -7.576126       -7.576083   1.000000   1.000000
    217         -7.576168       -7.576121   1.000000   1.000000
    218         -7.570092       -7.571816   1.000000   1.000000
    219         -7.568716       -7.568919   1.000000   1.000000
    220         -7.568670       -7.568881   1.000000   1.000000
    221         -7.563781       -7.563956   1.000000   1.000000
    222         -7.563721       -7.563894   1.000000   1.000000
    223         -7.555813       -7.555306   1.000000   1.000000
    224         -7.554216       -7.552080   1.000000   1.000000
    225         -7.547921       -7.547934   1.000000   1.000000
    226         -7.547403       -7.547145   1.000000   1.000000
    227         -7.547230       -7.547125   1.000000   1.000000
    228         -7.547192       -7.547082   1.000000   1.000000
    229         -7.542007       -7.542145   1.000000   1.000000
    230         -7.541948       -7.542077   1.000000   1.000000
    231         -7.537209       -7.537117   1.000000   1.000000
    232         -7.537188       -7.537085   1.000000   1.000000
    233         -7.530695       -7.530886   1.000000   1.000000
    234         -7.527594       -7.528384   1.000000   1.000000
    235         -7.527569       -7.527642   1.000000   1.000000
    236         -7.527603       -7.527668   1.000000   1.000000
    237         -7.517451       -7.516739   1.000000   1.000000
    238         -7.517353       -7.516646   1.000000   1.000000
    239         -7.510989       -7.507796   1.000000   1.000000
    240         -7.503990       -7.504201   1.000000   1.000000
    241         -7.503655       -7.502793   1.000000   1.000000
    242         -7.503606       -7.502760   1.000000   1.000000
    243         -7.487659       -7.487597   1.000000   1.000000
    244         -7.481040       -7.480102   1.000000   1.000000
    245         -7.481103       -7.480173   1.000000   1.000000
    246         -7.476742       -7.476789   1.000000   1.000000
    247         -7.476726       -7.476765   1.000000   1.000000
    248         -7.474572       -7.475286   1.000000   1.000000
    249         -7.472755       -7.473267   1.000000   1.000000
    250         -7.469484       -7.468814   1.000000   1.000000
    251         -7.469435       -7.468753   1.000000   1.000000
    252         -7.455654       -7.455139   1.000000   1.000000
    253         -7.454859       -7.454634   1.000000   1.000000
    254         -7.454845       -7.454616   1.000000   1.000000
    255         -7.449542       -7.450115   1.000000   1.000000
    256         -7.449548       -7.449465   1.000000   1.000000
    257         -7.449525       -7.449492   1.000000   1.000000
    258         -7.440317       -7.440703   1.000000   1.000000
    259         -7.440272       -7.440660   1.000000   1.000000
    260         -7.435998       -7.434659   1.000000   1.000000
    261         -7.435971       -7.434645   1.000000   1.000000
    262         -7.433540       -7.433382   1.000000   1.000000
    263         -7.431560       -7.431428   1.000000   1.000000
    264         -7.431500       -7.431373   1.000000   1.000000
    265         -7.422739       -7.422653   1.000000   1.000000
    266         -7.419971       -7.419670   1.000000   1.000000
    267         -7.419936       -7.419625   1.000000   1.000000
    268         -7.418869       -7.419591   1.000000   1.000000
    269         -7.412818       -7.413156   1.000000   1.000000
    270         -7.412725       -7.413070   1.000000   1.000000
    271         -7.405374       -7.405415   1.000000   1.000000
    272         -7.400300       -7.399830   1.000000   1.000000
    273         -7.400229       -7.399758   1.000000   1.000000
    274         -7.392755       -7.392677   1.000000   1.000000
    275         -7.391039       -7.390688   1.000000   1.000000
    276         -7.391013       -7.390656   1.000000   1.000000
    277         -7.388905       -7.389839   1.000000   1.000000
    278         -7.384936       -7.385341   1.000000   1.000000
    279         -7.384880       -7.385288   1.000000   1.000000
    280         -7.379085       -7.380272   1.000000   1.000000
    281         -7.375188       -7.375991   1.000000   1.000000
    282         -7.375366       -7.375941   1.000000   1.000000
    283         -7.375449       -7.375045   1.000000   1.000000
    284         -7.373206       -7.371635   1.000000   1.000000
    285         -7.369183       -7.369329   1.000000   1.000000
    286         -7.369053       -7.369203   1.000000   1.000000
    287         -7.364983       -7.365479   1.000000   1.000000
    288         -7.365007       -7.365491   1.000000   1.000000
    289         -7.358408       -7.359219   1.000000   1.000000
    290         -7.352954       -7.353917   1.000000   1.000000
    291         -7.352943       -7.353905   1.000000   1.000000
    292         -7.343255       -7.342863   1.000000   1.000000
    293         -7.343221       -7.342831   1.000000   1.000000
    294         -7.337455       -7.338974   1.000000   1.000000
    295         -7.335814       -7.336139   1.000000   1.000000
    296         -7.330431       -7.329970   1.000000   1.000000
    297         -7.330179       -7.329947   1.000000   1.000000
    298         -7.330160       -7.328153   1.000000   1.000000
    299         -7.320190       -7.320092   1.000000   1.000000
    300         -7.320174       -7.320080   1.000000   1.000000
    301         -7.318338       -7.318902   1.000000   1.000000
    302         -7.315556       -7.315769   1.000000   1.000000
    303         -7.315540       -7.315746   1.000000   1.000000
    304         -7.306901       -7.307155   1.000000   1.000000
    305         -7.306905       -7.307157   1.000000   1.000000
    306         -7.305406       -7.305180   1.000000   1.000000
    307         -7.303034       -7.303375   1.000000   1.000000
    308         -7.300939       -7.299921   1.000000   1.000000
    309         -7.300846       -7.299830   1.000000   1.000000
    310         -7.288631       -7.288642   1.000000   1.000000
    311         -7.288564       -7.288580   1.000000   1.000000
    312         -7.282747       -7.283211   1.000000   1.000000
    313         -7.282863       -7.281137   1.000000   1.000000
    314         -7.282638       -7.280468   1.000000   1.000000
    315         -7.280815       -7.280357   1.000000   1.000000
    316         -7.272465       -7.273052   1.000000   1.000000
    317         -7.253286       -7.255098   1.000000   1.000000
    318         -7.253217       -7.253459   1.000000   1.000000
    319         -7.252926       -7.253396   1.000000   1.000000
    320         -7.242347       -7.242450   1.000000   1.000000
    321         -7.242287       -7.242372   1.000000   1.000000
    322         -7.237279       -7.237303   1.000000   1.000000
    323         -7.237257       -7.237267   1.000000   1.000000
    324         -7.231873       -7.233136   1.000000   1.000000
    325         -7.217652       -7.217691   1.000000   1.000000
    326         -7.217670       -7.217712   1.000000   1.000000
    327         -7.212871       -7.212858   1.000000   1.000000
    328         -7.212795       -7.212776   1.000000   1.000000
    329         -7.208096       -7.208183   1.000000   1.000000
    330         -7.199464       -7.199139   1.000000   1.000000
    331         -7.193279       -7.193576   1.000000   1.000000
    332         -7.191254       -7.190614   1.000000   1.000000
    333         -7.191265       -7.190623   1.000000   1.000000
    334         -7.174507       -7.174916   1.000000   1.000000
    335         -7.174504       -7.174911   1.000000   1.000000
    336         -7.173409       -7.171617   1.000000   1.000000
    337         -7.166225       -7.166561   1.000000   1.000000
    338         -7.166293       -7.165203   1.000000   1.000000
    339         -7.161036       -7.161493   1.000000   1.000000
    340         -7.160995       -7.161457   1.000000   1.000000
    341         -7.149941       -7.149712   1.000000   1.000000
    342         -7.149821       -7.149585   1.000000   1.000000
    343         -7.145900       -7.146012   1.000000   1.000000
    344         -7.135320       -7.135151   1.000000   1.000000
    345         -7.134852       -7.134816   1.000000   1.000000
    346         -7.134715       -7.134916   1.000000   1.000000
    347         -7.124132       -7.123594   1.000000   1.000000
    348         -7.124005       -7.123493   1.000000   1.000000
    349         -7.120463       -7.120927   1.000000   1.000000
    350         -7.115069       -7.114497   1.000000   1.000000
    351         -7.115072       -7.114494   1.000000   1.000000
    352         -7.112933       -7.113564   1.000000   1.000000
    353         -7.106807       -7.106102   1.000000   1.000000
    354         -7.106799       -7.106083   1.000000   1.000000
    355         -7.096859       -7.097234   1.000000   1.000000
    356         -7.094186       -7.093648   1.000000   1.000000
    357         -7.094251       -7.093707   1.000000   1.000000
    358         -7.085310       -7.084679   1.000000   1.000000
    359         -7.073532       -7.073876   1.000000   1.000000
    360         -7.073447       -7.073790   1.000000   1.000000
    361         -7.068926       -7.069203   1.000000   1.000000
    362         -7.049854       -7.049913   1.000000   1.000000
    363         -7.049803       -7.049860   1.000000   1.000000
    364         -7.026370       -7.026654   1.000000   1.000000
    365         -7.026347       -7.026631   1.000000   1.000000
    366         -7.025544       -7.025345   1.000000   1.000000
    367         -7.019679       -7.019976   1.000000   1.000000
    368         -7.017801       -7.018739   1.000000   1.000000
    369         -7.017790       -7.018728   1.000000   1.000000
    370         -7.013116       -7.013090   1.000000   1.000000
    371         -7.012074       -7.009904   1.000000   1.000000
    372         -6.990065       -6.989459   1.000000   1.000000
    373         -6.989873       -6.989268   1.000000   1.000000
    374         -6.982732       -6.982606   1.000000   1.000000
    375         -6.982674       -6.982542   1.000000   1.000000
    376         -6.979732       -6.979774   1.000000   1.000000
    377         -6.977809       -6.977197   1.000000   1.000000
    378         -6.977713       -6.977282   1.000000   1.000000
    379         -6.976524       -6.976281   1.000000   1.000000
    380         -6.956782       -6.956550   1.000000   1.000000
    381         -6.956747       -6.956505   1.000000   1.000000
    382         -6.955365       -6.955290   1.000000   1.000000
    383         -6.949323       -6.949593   1.000000   1.000000
    384         -6.949269       -6.948535   1.000000   1.000000
    385         -6.949224       -6.948491   1.000000   1.000000
    386         -6.931718       -6.931671   1.000000   1.000000
    387         -6.931665       -6.931628   1.000000   1.000000
    388         -6.924582       -6.924851   1.000000   1.000000
    389         -6.919156       -6.920002   1.000000   1.000000
    390         -6.918610       -6.919357   1.000000   1.000000
    391         -6.918509       -6.919257   1.000000   1.000000
    392         -6.910724       -6.911130   1.000000   1.000000
    393         -6.907896       -6.907716   1.000000   1.000000
    394         -6.907346       -6.906781   1.000000   1.000000
    395         -6.907302       -6.906733   1.000000   1.000000
    396         -6.887778       -6.888694   1.000000   1.000000
    397         -6.886116       -6.886193   1.000000   1.000000
    398         -6.886080       -6.886162   1.000000   1.000000
    399         -6.878363       -6.878963   1.000000   1.000000
    400         -6.878254       -6.878857   1.000000   1.000000
    401         -6.870941       -6.871277   1.000000   1.000000
    402         -6.866391       -6.866835   1.000000   1.000000
    403         -6.866501       -6.866938   1.000000   1.000000
    404         -6.855575       -6.855879   1.000000   1.000000
    405         -6.853918       -6.853884   1.000000   1.000000
    406         -6.853759       -6.853735   1.000000   1.000000
    407         -6.845268       -6.845621   1.000000   1.000000
    408         -6.845264       -6.845615   1.000000   1.000000
    409         -6.838146       -6.838576   1.000000   1.000000
    410         -6.838090       -6.838386   1.000000   1.000000
    411         -6.838189       -6.837461   1.000000   1.000000
    412         -6.829482       -6.831256   1.000000   1.000000
    413         -6.825916       -6.825902   1.000000   1.000000
    414         -6.825805       -6.825799   1.000000   1.000000
    415         -6.823897       -6.823824   1.000000   1.000000
    416         -6.812240       -6.812184   1.000000   1.000000
    417         -6.811959       -6.812039   1.000000   1.000000
    418         -6.812036       -6.811929   1.000000   1.000000
    419         -6.809391       -6.809883   1.000000   1.000000
    420         -6.804687       -6.805066   1.000000   1.000000
    421         -6.800596       -6.801210   1.000000   1.000000
    422         -6.800519       -6.801133   1.000000   1.000000
    423         -6.799322       -6.799455   1.000000   1.000000
    424         -6.799139       -6.799271   1.000000   1.000000
    425         -6.766314       -6.766688   1.000000   1.000000
    426         -6.766284       -6.766413   1.000000   1.000000
    427         -6.766297       -6.766433   1.000000   1.000000
    428         -6.757913       -6.757241   1.000000   1.000000
    429         -6.757834       -6.757165   1.000000   1.000000
    430         -6.752459       -6.753015   1.000000   1.000000
    431         -6.750466       -6.750696   1.000000   1.000000
    432         -6.750455       -6.750683   1.000000   1.000000
    433         -6.745909       -6.746744   1.000000   1.000000
    434         -6.741599       -6.741705   1.000000   1.000000
    435         -6.741551       -6.741661   1.000000   1.000000
    436         -6.741262       -6.741547   1.000000   1.000000
    437         -6.738624       -6.739177   1.000000   1.000000
    438         -6.735860       -6.736170   1.000000   1.000000
    439         -6.734843       -6.734858   1.000000   1.000000
    440         -6.734823       -6.734839   1.000000   1.000000
    441         -6.730990       -6.731290   1.000000   1.000000
    442         -6.730993       -6.731294   1.000000   1.000000
    443         -6.717343       -6.717825   1.000000   1.000000
    444         -6.717317       -6.717671   1.000000   1.000000
    445         -6.717216       -6.717584   1.000000   1.000000
    446         -6.714568       -6.714812   1.000000   1.000000
    447         -6.714560       -6.714797   1.000000   1.000000
    448         -6.709138       -6.709690   1.000000   1.000000
    449         -6.709085       -6.709633   1.000000   1.000000
    450         -6.705531       -6.705903   1.000000   1.000000
    451         -6.703871       -6.704456   1.000000   1.000000
    452         -6.702881       -6.703151   1.000000   1.000000
    453         -6.697819       -6.698367   1.000000   1.000000
    454         -6.697829       -6.698377   1.000000   1.000000
    455         -6.694043       -6.694462   1.000000   1.000000
    456         -6.693911       -6.694331   1.000000   1.000000
    457         -6.681802       -6.682358   1.000000   1.000000
    458         -6.680125       -6.680381   1.000000   1.000000
    459         -6.676912       -6.677327   1.000000   1.000000
    460         -6.676849       -6.677264   1.000000   1.000000
    461         -6.673446       -6.673846   1.000000   1.000000
    462         -6.673490       -6.673888   1.000000   1.000000
    463         -6.671242       -6.671621   1.000000   1.000000
    464         -6.671194       -6.671573   1.000000   1.000000