       N       E                     dE             d eps       ncg     rms          ort
SDA:   1    -0.122120722700E+04   -0.12212E+04   -0.16732E-03  1344   0.558E-03 0.000E+00
DMP:   2    -0.122120735562E+04   -0.12862E-03   -0.10892E-03  1344   0.193E-03 0.299E-03
DMP:   3    -0.122120742463E+04   -0.69016E-04   -0.37649E-04  1344   0.706E-04 0.963E-04
DMP:   4    -0.122120744396E+04   -0.19332E-04   -0.12016E-04  1344   0.384E-04 0.283E-05
DMP:   5    -0.122120744689E+04   -0.29268E-05   -0.24112E-05  1344   0.199E-04-0.209E-04
DMP:   6    -0.122120744570E+04    0.11930E-05   -0.30214E-05  1344   0.192E-04-0.160E-04
DMP:   7    -0.122120744730E+04   -0.16006E-05   -0.45149E-05  1344   0.146E-04 0.841E-06
DMP:   8    -0.122120745051E+04   -0.32105E-05   -0.32890E-05  1344   0.728E-05 0.646E-05
DMP:   9    -0.122120745266E+04   -0.21467E-05   -0.13434E-05  1344   0.259E-05 0.332E-05
DMP:  10    -0.122120745333E+04   -0.67527E-06   -0.35025E-06  1344   0.120E-05-0.517E-07
   1 F= -.12212075E+04 E0= -.12212075E+04  d E =-.122121E+04  mag=     2.0000
       N       E                     dE             d eps       ncg     rms          ort
SDA:   1    -0.122120602617E+04    0.14265E-02   -0.95991E-03  1344   0.320E-02 0.000E+00
DMP:   2    -0.122120681545E+04   -0.78928E-03   -0.77316E-03  1344   0.140E-02 0.206E-02
DMP:   3    -0.122120735513E+04   -0.53968E-03   -0.28385E-03  1344   0.364E-03 0.102E-02
DMP:   4    -0.122120750650E+04   -0.15137E-03   -0.53789E-04  1344   0.144E-03 0.627E-04
DMP:   5    -0.122120751026E+04   -0.37638E-05   -0.10711E-04  1344   0.124E-03-0.155E-03
DMP:   6    -0.122120750460E+04    0.56644E-05   -0.20901E-04  1344   0.112E-03-0.739E-04
DMP:   7    -0.122120751777E+04   -0.13168E-04   -0.26500E-04  1344   0.782E-04 0.178E-04
DMP:   8    -0.122120753728E+04   -0.19511E-04   -0.19390E-04  1344   0.410E-04 0.415E-04
DMP:   9    -0.122120755073E+04   -0.13452E-04   -0.95972E-05  1344   0.177E-04 0.251E-04
DMP:  10    -0.122120755661E+04   -0.58811E-05   -0.37351E-05  1344   0.823E-05 0.741E-05
DMP:  11    -0.122120755849E+04   -0.18786E-05   -0.14910E-05  1344   0.481E-05 0.272E-06
DMP:  12    -0.122120755912E+04   -0.62592E-06   -0.82240E-06  1344   0.313E-05-0.673E-06
   2 F= -.12212076E+04 E0= -.12212076E+04  d E =-.105786E-03  mag=     2.0000
