 vasp.6.4.2 20Jul23 (build Oct 07 2023 16:32:06) gamma-only                     
  
 executed on             bridges2 date 2023.12.24  14:19:46
 running  768 mpi-ranks, on    6 nodes
 distrk:  each k-point on  384 cores,    2 groups
 distr:  one band on NCORE=   8 cores,   48 groups


--------------------------------------------------------------------------------------------------------


 INCAR:
   SYSTEM = zno
   PREC = Normal
   ISTART = 1
   ICHARG = 1
   ISPIN = 2
   MAGMOM = 76*0.0 1*1.0 2*0.0 1*1.0 11*0.0 1*1.0 78*0.0 1*1.0 2*0.0 1*1.0 11*0.0 1*1.0 4*0.0 1*1.4
   FERWE = 857*1 1*1 1*0 485*0
   FERDO = 855*1 1*0 1*1 487*0
   NCORE = 8
   KPAR = 2
   NELECT = 1714
   ENCUT = 400
   NELM = 1500
   NELMIN = 4
   EDIFF = 1E-06
   LREAL = Auto
   EDIFFG = -1E-02
   NSW = 40
   IBRION = 2
   ISIF = 2
   ISYM = 3
   POTIM = 0.2
   ISMEAR = -2
   SIGMA = 0.005
   NBANDS = 1344
   LWAVE = T
   LCHARG = T
   LVHAR = T
   LVTOT = F
   LELF = F
   LORBIT = 11
   ALGO = Damped
   TIME = 0.3
   LHFCALC = T
   HFSCREEN = 0.2
   AEXX = 0.375
   GGA = PE
   LDIAG = .FALSE.

 POTCAR:    PAW_PBE Zn 06Sep2000                  
 POTCAR:    PAW_PBE O 08Apr2002                   
 POTCAR:    PAW_PBE V 08Apr2002                   
 -----------------------------------------------------------------------------
|                                                                             |
|           W    W    AA    RRRRR   N    N  II  N    N   GGGG   !!!           |
|           W    W   A  A   R    R  NN   N  II  NN   N  G    G  !!!           |
|           W    W  A    A  R    R  N N  N  II  N N  N  G       !!!           |
|           W WW W  AAAAAA  RRRRR   N  N N  II  N  N N  G  GGG   !            |
|           WW  WW  A    A  R   R   N   NN  II  N   NN  G    G                |
|           W    W  A    A  R    R  N    N  II  N    N   GGGG   !!!           |
|                                                                             |
|     For optimal performance we recommend to set                             |
|       NCORE = 2 up to number-of-cores-per-socket                            |
|     NCORE specifies how many cores store one orbital (NPAR=cpu/NCORE).      |
|     This setting can greatly improve the performance of VASP for DFT.       |
|     The default, NCORE=1 might be grossly inefficient on modern             |
|     multi-core architectures or massively parallel machines. Do your        |
|     own testing! More info at https://www.vasp.at/wiki/index.php/NCORE      |
|     Unfortunately you need to use the default for GW and RPA                |
|     calculations (for HF NCORE is supported but not extensively tested      |
|     yet).                                                                   |
|                                                                             |
 -----------------------------------------------------------------------------

 POTCAR:    PAW_PBE Zn 06Sep2000                  
   SHA256 =  501fddbd8274dd8e9725d4f3de27861d7f1e553a7e18441bc79fed8f346e7f23 Zn/POTCAR             
   COPYR  = (c) Copyright 06Sep2000 Georg Kresse                                                    
   COPYR  = This file is part of the software VASP. Any use, copying, and all other rights are regul
   COPYR  = If you do not have a valid VASP license, you may not use, copy or distribute this file. 
   VRHFIN =Zn: d10 p2                                                                               
   LEXCH  = PE                                                                                      
   EATOM  =  1748.8345 eV,  128.5357 Ry                                                             
                                                                                                    
   TITEL  = PAW_PBE Zn 06Sep2000                                                                    
   LULTRA =        F    use ultrasoft PP ?                                                          
   IUNSCR =        1    unscreen: 0-lin 1-nonlin 2-no                                               
   RPACOR =    2.000    partial core radius                                                         
   POMASS =   65.390; ZVAL   =   12.000    mass and valenz                                          
   RCORE  =    2.300    outmost cutoff radius                                                       
   RWIGS  =    2.400; RWIGS  =    1.270    wigner-seitz radius (au A)                               
   ENMAX  =  276.723; ENMIN  =  207.542 eV                                                          
   RCLOC  =    1.828    cutoff for local pot                                                        
   LCOR   =        T    correct aug charges                                                         
   LPAW   =        T    paw PP                                                                      
   EAUG   =  575.892                                                                                
   DEXC   =    0.000                                                                                
   RMAX   =    2.347    core radius for proj-oper                                                   
   RAUG   =    1.300    factor for augmentation sphere                                              
   RDEP   =    2.324    radius for radial grids                                                     
   RDEPT  =    1.788    core radius for aug-charge                                                  
                                                                                                    
   Atomic configuration                                                                             
    9 entries                                                                                       
     n  l   j            E        occ.                                                              
     1  0  0.50     -9524.6913   2.0000                                                             
     2  0  0.50     -1158.1882   2.0000                                                             
     2  1  1.50     -1003.8506   6.0000                                                             
     3  0  0.50      -129.2194   2.0000                                                             
     3  1  1.50       -83.3890   6.0000                                                             
     3  2  2.50       -10.1410  10.0000                                                             
     4  0  0.50        -5.9785   2.0000                                                             
     4  1  0.50        -4.0817   0.0000                                                             
     4  3  2.50        -1.3606   0.0000                                                             
   Description                                                                                      
     l       E           TYP  RCUT    TYP  RCUT                                                     
     2    -10.1410010     23  2.300                                                                 
     2    -11.5015836     23  2.300                                                                 
     0     -5.9785163     23  2.300                                                                 
     0      1.1858015     23  2.300                                                                 
     1     -2.7211652     23  2.300                                                                 
     1     13.2444212     23  2.300                                                                 
  local pseudopotential read in
  partial core-charges read in
  partial kinetic energy density read in
  atomic valenz-charges read in
  non local Contribution for L=           2  read in
    real space projection operators read in
  non local Contribution for L=           2  read in
    real space projection operators read in
  non local Contribution for L=           0  read in
    real space projection operators read in
  non local Contribution for L=           0  read in
    real space projection operators read in
  non local Contribution for L=           1  read in
    real space projection operators read in
  non local Contribution for L=           1  read in
    real space projection operators read in
    PAW grid and wavefunctions read in
 
   number of l-projection  operators is LMAX  =           6
   number of lm-projection operators is LMMAX =          18
 
 POTCAR:    PAW_PBE O 08Apr2002                   
   SHA256 =  818f92134a0a090dccd8ba1447fa70422a3b330e708bb4f08108d8ae51209ddf O/POTCAR              
   COPYR  = (c) Copyright 08Apr2002 Georg Kresse                                                    
   COPYR  = This file is part of the software VASP. Any use, copying, and all other rights are regul
   COPYR  = If you do not have a valid VASP license, you may not use, copy or distribute this file. 
   VRHFIN =O: s2p4                                                                                  
   LEXCH  = PE                                                                                      
   EATOM  =   432.3788 eV,   31.7789 Ry                                                             
                                                                                                    
   TITEL  = PAW_PBE O 08Apr2002                                                                     
   LULTRA =        F    use ultrasoft PP ?                                                          
   IUNSCR =        1    unscreen: 0-lin 1-nonlin 2-no                                               
   RPACOR =    1.200    partial core radius                                                         
   POMASS =   16.000; ZVAL   =    6.000    mass and valenz                                          
   RCORE  =    1.520    outmost cutoff radius                                                       
   RWIGS  =    1.550; RWIGS  =    0.820    wigner-seitz radius (au A)                               
   ENMAX  =  400.000; ENMIN  =  300.000 eV                                                          
   ICORE  =        2    local potential                                                             
   LCOR   =        T    correct aug charges                                                         
   LPAW   =        T    paw PP                                                                      
   EAUG   =  605.392                                                                                
   DEXC   =    0.000                                                                                
   RMAX   =    1.553    core radius for proj-oper                                                   
   RAUG   =    1.300    factor for augmentation sphere                                              
   RDEP   =    1.550    radius for radial grids                                                     
   RDEPT  =    1.329    core radius for aug-charge                                                  
                                                                                                    
   Atomic configuration                                                                             
    4 entries                                                                                       
     n  l   j            E        occ.                                                              
     1  0  0.50      -514.6923   2.0000                                                             
     2  0  0.50       -23.9615   2.0000                                                             
     2  1  0.50        -9.0305   4.0000                                                             
     3  2  1.50        -9.5241   0.0000                                                             
   Description                                                                                      
     l       E           TYP  RCUT    TYP  RCUT                                                     
     0    -23.9615318     23  1.200                                                                 
     0     -9.5240782     23  1.200                                                                 
     1     -9.0304911     23  1.520                                                                 
     1      8.1634956     23  1.520                                                                 
     2     -9.5240782      7  1.500                                                                 
  local pseudopotential read in
  partial core-charges read in
  partial kinetic energy density read in
  kinetic energy density of atom read in
  atomic valenz-charges read in
  non local Contribution for L=           0  read in
    real space projection operators read in
  non local Contribution for L=           0  read in
    real space projection operators read in
  non local Contribution for L=           1  read in
    real space projection operators read in
  non local Contribution for L=           1  read in
    real space projection operators read in
    PAW grid and wavefunctions read in
 
   number of l-projection  operators is LMAX  =           4
   number of lm-projection operators is LMMAX =           8
 
 POTCAR:    PAW_PBE V 08Apr2002                   
   SHA256 =  ef546ef2c242197bded3fc1a147275a02051e3e940c74ac2c3352ea17412f79c V/POTCAR              
   COPYR  = (c) Copyright 08Apr2002 Georg Kresse                                                    
   COPYR  = This file is part of the software VASP. Any use, copying, and all other rights are regul
   COPYR  = If you do not have a valid VASP license, you may not use, copy or distribute this file. 
   VRHFIN =V: p6 d4 s1                                                                              
   LEXCH  = PE                                                                                      
   EATOM  =   170.8679 eV,   12.5584 Ry                                                             
                                                                                                    
   TITEL  = PAW_PBE V 08Apr2002                                                                     
   LULTRA =        F    use ultrasoft PP ?                                                          
   IUNSCR =        1    unscreen: 0-lin 1-nonlin 2-no                                               
   RPACOR =    2.000    partial core radius                                                         
   POMASS =   50.941; ZVAL   =    5.000    mass and valenz                                          
   RCORE  =    2.700    outmost cutoff radius                                                       
   RWIGS  =    2.500; RWIGS  =    1.323    wigner-seitz radius (au A)                               
   ENMAX  =  192.543; ENMIN  =  144.408 eV                                                          
   RCLOC  =    1.779    cutoff for local pot                                                        
   LCOR   =        T    correct aug charges                                                         
   LPAW   =        T    paw PP                                                                      
   EAUG   =  358.662                                                                                
   DEXC   =    0.000                                                                                
   RMAX   =    2.768    core radius for proj-oper                                                   
   RAUG   =    1.300    factor for augmentation sphere                                              
   RDEP   =    2.762    radius for radial grids                                                     
   RDEPT  =    2.240    core radius for aug-charge                                                  
                                                                                                    
   Atomic configuration                                                                             
    9 entries                                                                                       
     n  l   j            E        occ.                                                              
     1  0  0.50     -5360.7193   2.0000                                                             
     2  0  0.50      -598.4546   2.0000                                                             
     2  1  1.50      -499.0155   6.0000                                                             
     3  0  0.50       -66.5711   2.0000                                                             
     3  1  1.50       -40.5282   6.0000                                                             
     3  2  2.50        -2.4291   4.0000                                                             
     4  0  0.50        -3.8743   1.0000                                                             
     4  1  0.50        -2.7212   0.0000                                                             
     4  3  2.50        -1.3606   0.0000                                                             
   Description                                                                                      
     l       E           TYP  RCUT    TYP  RCUT                                                     
     2     -2.4290901     23  2.700                                                                 
     2     -3.7896727     23  2.700                                                                 
     0     -3.8742752     23  2.700                                                                 
     0     27.2116520     23  2.700                                                                 
     1     -2.7211652     23  2.700                                                                 
     1     27.2116520     23  2.700                                                                 
  local pseudopotential read in
  partial core-charges read in
  partial kinetic energy density read in
  atomic valenz-charges read in
  non local Contribution for L=           2  read in
    real space projection operators read in
  non local Contribution for L=           2  read in
    real space projection operators read in
  non local Contribution for L=           0  read in
    real space projection operators read in
  non local Contribution for L=           0  read in
    real space projection operators read in
  non local Contribution for L=           1  read in
    real space projection operators read in
  non local Contribution for L=           1  read in
    real space projection operators read in
    PAW grid and wavefunctions read in
 
   number of l-projection  operators is LMAX  =           6
   number of lm-projection operators is LMMAX =          18
 
 Optimization of the real space projectors (new method)

 maximal supplied QI-value         = 16.25
 optimisation between [QCUT,QGAM] = [ 10.24, 20.48] = [ 29.35,117.42] Ry 
 Optimized for a Real-space Cutoff    1.38 Angstroem

   l    n(q)    QCUT    max X(q) W(low)/X(q) W(high)/X(q)  e(spline) 
   2      7    10.239    46.356    0.21E-03    0.48E-03    0.10E-06
   2      7    10.239    41.843    0.21E-03    0.50E-03    0.10E-06
   0      8    10.239    48.958    0.37E-03    0.79E-04    0.11E-06
   0      8    10.239    32.776    0.35E-03    0.73E-04    0.10E-06
   1      8    10.239    17.787    0.49E-03    0.70E-03    0.14E-06
   1      8    10.239    14.435    0.42E-03    0.61E-03    0.13E-06
 Optimization of the real space projectors (new method)

 maximal supplied QI-value         = 24.76
 optimisation between [QCUT,QGAM] = [ 10.15, 20.30] = [ 28.85,115.39] Ry 
 Optimized for a Real-space Cutoff    1.38 Angstroem

   l    n(q)    QCUT    max X(q) W(low)/X(q) W(high)/X(q)  e(spline) 
   0      8    10.150    20.381    0.22E-03    0.32E-03    0.29E-06
   0      8    10.150    15.268    0.23E-03    0.35E-03    0.30E-06
   1      8    10.150     5.964    0.46E-03    0.53E-03    0.21E-06
   1      8    10.150     5.382    0.38E-03    0.45E-03    0.19E-06
 Optimization of the real space projectors (new method)

 maximal supplied QI-value         = 13.98
 optimisation between [QCUT,QGAM] = [ 10.21, 20.42] = [ 29.18,116.73] Ry 
 Optimized for a Real-space Cutoff    1.60 Angstroem

   l    n(q)    QCUT    max X(q) W(low)/X(q) W(high)/X(q)  e(spline) 
   2      9    10.208    96.114    0.38E-03    0.52E-03    0.25E-06
   2      9    10.208    88.986    0.38E-03    0.52E-03    0.26E-06
   0     10    10.208    20.919    0.14E-03    0.29E-04    0.23E-06
   0     10    10.208     9.593    0.11E-03    0.21E-04    0.17E-06
   1      9    10.208    11.615    0.18E-03    0.30E-03    0.12E-06
   1      9    10.208     7.031    0.12E-03    0.21E-03    0.96E-07
  PAW_PBE Zn 06Sep2000                  :
 energy of atom  1       EATOM=-1748.8345
 kinetic energy error for atom=    0.0107 (will be added to EATOM!!)
  PAW_PBE O 08Apr2002                   :
 energy of atom  2       EATOM= -432.3788
 kinetic energy error for atom=    0.1156 (will be added to EATOM!!)
  PAW_PBE V 08Apr2002                   :
 energy of atom  3       EATOM= -170.8679
 kinetic energy error for atom=    0.0010 (will be added to EATOM!!)
 
 
 POSCAR: Zn2 O2
  positions in direct lattice
  velocities in cartesian coordinates
 exchange correlation table for  LEXCH =        8
   RHO(1)=    0.500       N(1)  =     2000
   RHO(2)=  100.500       N(2)  =     4000
 


--------------------------------------------------------------------------------------------------------


 ion  position               nearest neighbor table
   1  0.167  0.083  0.166- 143 1.97 152 1.97 155 1.97  96 1.99
   2  0.167  0.083  0.499- 144 1.97 153 1.98 156 1.98  97 1.98
   3  0.167  0.083  0.834-  98 1.98 145 1.98 154 1.98 157 1.98
   4  0.166  0.333  0.166- 143 1.97 146 1.97 158 1.98  99 1.99
   5  0.166  0.333  0.499- 144 1.97 147 1.97 100 1.98 159 1.99
   6  0.166  0.333  0.834- 101 1.98 145 1.98 148 1.98 160 1.99
   7  0.167  0.583  0.166- 146 1.97 161 1.97 149 1.97 102 1.99
   8  0.167  0.583  0.499- 147 1.97 162 1.98 150 1.98 103 1.98
   9  0.167  0.583  0.834- 104 1.98 148 1.98 163 1.98 151 1.98
  10  0.167  0.833  0.166- 164 1.97 149 1.97 152 1.97 105 1.99
  11  0.167  0.834  0.500- 165 1.97 150 1.98 153 1.98 106 1.98
  12  0.167  0.833  0.834- 107 1.98 166 1.98 151 1.98 154 1.98
  13  0.417  0.083  0.166- 164 1.97 167 1.97 155 1.97 108 1.99
  14  0.416  0.083  0.500- 165 1.97 168 1.98 156 1.98 109 1.98
  15  0.417  0.083  0.834- 110 1.98 166 1.98 169 1.98 157 1.98
  16  0.416  0.333  0.167- 155 1.97 158 1.97 170 1.98 111 2.00
  17  0.412  0.331  0.500- 156 1.94 159 1.96 112 1.98 171 2.03
  18  0.416  0.333  0.835- 113 1.97 157 1.97 160 1.97 172 2.01
  19  0.416  0.583  0.167- 161 1.97 158 1.97 173 1.98 114 2.00
  20  0.412  0.582  0.500- 162 1.94 159 1.96 115 1.98 174 2.03
  21  0.416  0.583  0.835- 116 1.97 163 1.97 160 1.97 175 2.01
  22  0.416  0.834  0.166- 164 1.97 161 1.97 176 1.97 117 1.99
  23  0.416  0.834  0.500- 165 1.97 162 1.97 177 1.97 118 1.98
  24  0.416  0.834  0.834- 119 1.98 166 1.98 163 1.98 178 1.98
  25  0.667  0.083  0.166- 179 1.97 176 1.97 167 1.97 120 1.99
  26  0.667  0.083  0.499- 180 1.97 177 1.98 168 1.98 121 1.98
  27  0.667  0.083  0.834- 122 1.98 181 1.98 178 1.98 169 1.98
  28  0.667  0.333  0.167- 167 1.97 182 1.97 170 1.98 123 2.00
  29  0.668  0.331  0.500- 168 1.94 183 1.96 124 1.98 171 2.03
  30  0.667  0.333  0.835- 125 1.97 169 1.97 184 1.97 172 2.01
  31  0.667  0.583  0.169- 170 1.97 185 1.97 173 1.97 126 2.03
  32  0.667  0.583  0.836- 127 1.96 175 1.98 172 1.98 187 1.98
  33  0.667  0.834  0.167- 176 1.97 188 1.97 173 1.98 128 2.00
  34  0.668  0.838  0.500- 177 1.94 189 1.96 129 1.98 174 2.03
  35  0.667  0.834  0.835- 130 1.97 178 1.97 190 1.97 175 2.01
  36  0.917  0.084  0.166- 143 1.97 179 1.97 188 1.98 131 1.99
  37  0.917  0.084  0.499- 144 1.97 180 1.97 132 1.98 189 1.99
  38  0.917  0.084  0.834- 133 1.98 145 1.98 181 1.98 190 1.99
  39  0.917  0.333  0.166- 179 1.97 146 1.97 182 1.98 134 1.99
  40  0.917  0.333  0.499- 180 1.97 147 1.97 135 1.98 183 1.99
  41  0.917  0.333  0.834- 136 1.98 181 1.98 148 1.98 184 1.99
  42  0.917  0.583  0.167- 149 1.97 182 1.97 185 1.98 137 2.00
  43  0.919  0.582  0.500- 150 1.94 183 1.96 138 1.98 186 2.03
  44  0.917  0.583  0.835- 139 1.97 151 1.97 184 1.97 187 2.01
  45  0.917  0.834  0.167- 152 1.97 188 1.97 185 1.98 140 2.00
  46  0.919  0.838  0.500- 153 1.94 189 1.96 141 1.98 186 2.03
  47  0.917  0.834  0.835- 142 1.97 154 1.97 190 1.97 187 2.01
  48  0.083  0.167  0.000- 101 1.98 133 1.98  98 1.98 143 1.98
  49  0.083  0.167  0.333-  99 1.97 131 1.97  96 1.97 144 1.99
  50  0.083  0.167  0.667- 145 1.98 100 1.98 132 1.98  97 1.98
  51  0.083  0.417  0.000- 136 1.98 104 1.98 101 1.98 146 1.98
  52  0.083  0.416  0.333- 134 1.97  99 1.97 102 1.97 147 1.99
  53  0.083  0.416  0.667- 148 1.98 135 1.98 100 1.98 103 1.98
  54  0.084  0.667  0.000- 107 1.98 104 1.98 139 1.98 149 1.98
  55  0.085  0.667  0.332- 102 1.96 105 1.97 137 1.98 150 1.99
  56  0.085  0.667  0.667- 103 1.97 106 1.97 151 1.97 138 2.01
  57  0.084  0.917  0.000- 107 1.98  98 1.98 142 1.98 152 1.98
  58  0.085  0.917  0.332-  96 1.96 105 1.97 140 1.98 153 1.99
  59  0.085  0.918  0.667-  97 1.97 106 1.97 154 1.97 141 2.01
  60  0.333  0.166  0.000- 110 1.98  98 1.98 113 1.98 155 1.98
  61  0.333  0.165  0.332-  96 1.96 108 1.97 111 1.98 156 1.99
  62  0.332  0.165  0.667-  97 1.97 109 1.97 157 1.97 112 2.01
  63  0.333  0.417  0.001- 101 1.97 116 1.98 113 1.98 158 1.98
  64  0.332  0.416  0.332-  99 1.96 114 1.97 111 1.97 159 2.00
  65  0.332  0.416  0.668- 100 1.96 160 1.97 115 1.99 112 1.99
  66  0.333  0.667  0.000- 119 1.98 104 1.98 116 1.98 161 1.98
  67  0.333  0.667  0.332- 102 1.96 117 1.97 114 1.98 162 1.99
  68  0.332  0.667  0.667- 103 1.97 118 1.97 163 1.97 115 2.01
  69  0.333  0.917  1.000- 110 1.98 107 1.98 119 1.98 164 1.98
  70  0.333  0.917  0.332- 117 1.97 108 1.97 105 1.97 165 1.99
  71  0.333  0.917  0.667- 166 1.98 109 1.98 106 1.98 118 1.98
  72  0.583  0.166  0.000- 110 1.98 122 1.98 125 1.98 167 1.98
  73  0.583  0.165  0.332- 120 1.96 108 1.97 123 1.98 168 1.99
  74  0.583  0.165  0.667- 121 1.97 109 1.97 169 1.97 124 2.01
  75  0.583  0.417  0.002- 113 1.97 125 1.98 127 1.98 170 1.99
  76  0.582  0.414  0.330- 123 1.94 111 1.94 126 1.97 171 2.07
  77  0.577  0.404  0.670- 124 1.93 112 1.93 172 1.93
  78  0.583  0.667  0.002- 130 1.97 116 1.97 127 1.98 173 1.99
  79  0.582  0.668  0.330- 128 1.94 114 1.94 126 1.97 174 2.07
  80  0.577  0.673  0.670- 129 1.93 115 1.93 175 1.93
  81  0.583  0.917  0.000- 119 1.98 122 1.98 130 1.98 176 1.98
  82  0.583  0.917  0.332- 120 1.96 117 1.97 128 1.98 177 1.99
  83  0.583  0.918  0.667- 121 1.97 118 1.97 178 1.97 129 2.01
  84  0.833  0.167  0.000- 136 1.98 122 1.98 133 1.98 179 1.98
  85  0.834  0.167  0.333- 134 1.97 131 1.97 120 1.97 180 1.99
  86  0.834  0.167  0.667- 181 1.98 135 1.98 132 1.98 121 1.98
  87  0.833  0.417  0.001- 136 1.97 139 1.98 125 1.98 182 1.98
  88  0.834  0.416  0.332- 134 1.96 137 1.97 123 1.97 183 2.00
  89  0.834  0.416  0.668- 135 1.96 184 1.97 138 1.99 124 1.99
  90  0.833  0.667  0.002- 142 1.97 139 1.98 127 1.98 185 1.99
  91  0.836  0.668  0.330- 137 1.94 140 1.94 126 1.97 186 2.07
  92  0.846  0.673  0.670- 138 1.93 141 1.93 187 1.93
  93  0.833  0.917  0.001- 133 1.97 130 1.98 142 1.98 188 1.98
  94  0.834  0.918  0.332- 131 1.96 128 1.97 140 1.97 189 2.00
  95  0.834  0.918  0.668- 132 1.96 190 1.97 129 1.99 141 1.99
  96  0.167  0.083  0.294-  58 1.96  61 1.96  49 1.97   1 1.99
  97  0.166  0.084  0.626-  59 1.97  62 1.97  50 1.98   2 1.98
  98  0.167  0.083  0.960-   3 1.98  57 1.98  60 1.98  48 1.98
  99  0.166  0.333  0.294-  64 1.96  49 1.97  52 1.97   4 1.99
 100  0.167  0.334  0.626-  65 1.96  53 1.98  50 1.98   5 1.98
 101  0.167  0.333  0.960-  63 1.97   6 1.98  48 1.98  51 1.98
 102  0.167  0.583  0.294-  67 1.96  55 1.96  52 1.97   7 1.99
 103  0.166  0.583  0.626-  56 1.97  68 1.97  53 1.98   8 1.98
 104  0.167  0.583  0.960-   9 1.98  66 1.98  54 1.98  51 1.98
 105  0.167  0.833  0.294-  55 1.97  58 1.97  70 1.97  10 1.99
 106  0.166  0.833  0.627-  56 1.97  59 1.97  71 1.98  11 1.98
 107  0.167  0.833  0.960-  54 1.98  57 1.98  12 1.98  69 1.98
 108  0.417  0.083  0.294-  73 1.97  61 1.97  70 1.97  13 1.99
 109  0.417  0.084  0.627-  74 1.97  62 1.97  71 1.98  14 1.98
 110  0.417  0.083  0.960-  72 1.98  60 1.98  15 1.98  69 1.98
 111  0.416  0.333  0.295-  76 1.94  64 1.97  61 1.98  16 2.00
 112  0.417  0.334  0.626-  77 1.93  17 1.98  65 1.99  62 2.01
 113  0.418  0.334  0.961-  18 1.97  75 1.97  63 1.98  60 1.98
 114  0.416  0.583  0.295-  79 1.94  64 1.97  67 1.98  19 2.00
 115  0.417  0.583  0.626-  80 1.93  20 1.98  65 1.99  68 2.01
 116  0.418  0.584  0.961-  21 1.97  78 1.97  63 1.98  66 1.98
 117  0.417  0.833  0.294-  67 1.97  82 1.97  70 1.97  22 1.99
 118  0.417  0.833  0.627-  68 1.97  83 1.97  71 1.98  23 1.98
 119  0.417  0.833  0.960-  66 1.98  81 1.98  24 1.98  69 1.98
 120  0.667  0.083  0.294-  82 1.96  73 1.96  85 1.97  25 1.99
 121  0.667  0.084  0.626-  74 1.97  83 1.97  86 1.98  26 1.98
 122  0.667  0.083  0.960-  27 1.98  81 1.98  72 1.98  84 1.98
 123  0.667  0.333  0.295-  76 1.94  88 1.97  73 1.98  28 2.00
 124  0.667  0.334  0.626-  77 1.93  29 1.98  89 1.99  74 2.01
 125  0.666  0.334  0.961-  30 1.97  75 1.98  87 1.98  72 1.98
 126  0.667  0.583  0.299-  79 1.97  76 1.97  91 1.97  31 2.03
 127  0.667  0.583  0.961-  32 1.96  75 1.98  90 1.98  78 1.98
 128  0.667  0.834  0.295-  79 1.94  94 1.97  82 1.98  33 2.00
 129  0.667  0.833  0.626-  80 1.93  34 1.98  95 1.99  83 2.01
 130  0.666  0.832  0.961-  35 1.97  78 1.97  93 1.98  81 1.98
 131  0.917  0.084  0.294-  94 1.96  49 1.97  85 1.97  36 1.99
 132  0.916  0.083  0.626-  95 1.96  86 1.98  50 1.98  37 1.98
 133  0.917  0.083  0.960-  93 1.97  38 1.98  48 1.98  84 1.98
 134  0.917  0.333  0.294-  88 1.96  85 1.97  52 1.97  39 1.99
 135  0.916  0.334  0.626-  89 1.96  86 1.98  53 1.98  40 1.98
 136  0.917  0.333  0.960-  87 1.97  41 1.98  84 1.98  51 1.98
 137  0.917  0.583  0.295-  91 1.94  88 1.97  55 1.98  42 2.00
 138  0.916  0.583  0.626-  92 1.93  43 1.98  89 1.99  56 2.01
 139  0.916  0.584  0.961-  44 1.97  90 1.98  87 1.98  54 1.98
 140  0.917  0.834  0.295-  91 1.94  94 1.97  58 1.98  45 2.00
 141  0.916  0.833  0.626-  92 1.93  46 1.98  95 1.99  59 2.01
 142  0.916  0.832  0.961-  47 1.97  90 1.97  93 1.98  57 1.98
 143  0.083  0.167  0.127-   4 1.97  36 1.97   1 1.97  48 1.98
 144  0.083  0.167  0.460-   2 1.97   5 1.97  37 1.97  49 1.99
 145  0.083  0.167  0.793-   3 1.98  50 1.98   6 1.98  38 1.98
 146  0.083  0.417  0.127-  39 1.97   7 1.97   4 1.97  51 1.98
 147  0.083  0.417  0.460-   8 1.97  40 1.97   5 1.97  52 1.99
 148  0.083  0.417  0.793-   9 1.98  53 1.98  41 1.98   6 1.98
 149  0.083  0.667  0.127-  42 1.97   7 1.97  10 1.97  54 1.98
 150  0.083  0.667  0.460-  43 1.94  11 1.98   8 1.98  55 1.99
 151  0.083  0.666  0.793-  56 1.97  44 1.97  12 1.98   9 1.98
 152  0.083  0.917  0.127-  45 1.97   1 1.97  10 1.97  57 1.98
 153  0.083  0.916  0.460-  46 1.94  11 1.98   2 1.98  58 1.99
 154  0.083  0.916  0.793-  59 1.97  47 1.97  12 1.98   3 1.98
 155  0.333  0.167  0.127-  16 1.97   1 1.97  13 1.97  60 1.98
 156  0.334  0.167  0.460-  17 1.94  14 1.98   2 1.98  61 1.99
 157  0.334  0.167  0.793-  62 1.97  18 1.97  15 1.98   3 1.98
 158  0.333  0.417  0.128-  19 1.97  16 1.97   4 1.98  63 1.98
 159  0.334  0.417  0.460-  20 1.96  17 1.96   5 1.99  64 2.00
 160  0.334  0.417  0.794-  65 1.97  21 1.97  18 1.97   6 1.99
 161  0.333  0.667  0.127-  19 1.97   7 1.97  22 1.97  66 1.98
 162  0.334  0.667  0.460-  20 1.94  23 1.97   8 1.98  67 1.99
 163  0.334  0.666  0.793-  68 1.97  21 1.97  24 1.98   9 1.98
 164  0.333  0.917  0.127-  13 1.97  10 1.97  22 1.97  69 1.98
 165  0.333  0.917  0.460-  14 1.97  11 1.97  23 1.97  70 1.99
 166  0.333  0.917  0.793-  15 1.98  12 1.98  24 1.98  71 1.98
 167  0.583  0.167  0.127-  28 1.97  25 1.97  13 1.97  72 1.98
 168  0.583  0.167  0.460-  29 1.94  14 1.98  26 1.98  73 1.99
 169  0.584  0.167  0.793-  74 1.97  30 1.97  15 1.98  27 1.98
 170  0.584  0.417  0.130-  31 1.97  28 1.98  16 1.98  75 1.99
 171  0.586  0.421  0.463- 191 1.88  29 2.03  17 2.03  76 2.07
 172  0.584  0.418  0.793-  77 1.93  32 1.98  18 2.01  30 2.01
 173  0.584  0.666  0.130-  31 1.97  33 1.98  19 1.98  78 1.99
 174  0.585  0.665  0.463- 191 1.88  34 2.03  20 2.03  79 2.07
 175  0.584  0.666  0.793-  80 1.93  32 1.98  35 2.01  21 2.01
 176  0.583  0.917  0.127-  33 1.97  25 1.97  22 1.97  81 1.98
 177  0.583  0.916  0.460-  34 1.94  23 1.97  26 1.98  82 1.99
 178  0.584  0.916  0.793-  83 1.97  35 1.97  24 1.98  27 1.98
 179  0.833  0.167  0.127-  39 1.97  25 1.97  36 1.97  84 1.98
 180  0.833  0.167  0.460-  26 1.97  40 1.97  37 1.97  85 1.99
 181  0.833  0.167  0.793-  27 1.98  86 1.98  41 1.98  38 1.98
 182  0.833  0.417  0.128-  42 1.97  28 1.97  39 1.98  87 1.98
 183  0.833  0.417  0.460-  43 1.96  29 1.96  40 1.99  88 2.00
 184  0.833  0.417  0.794-  89 1.97  44 1.97  30 1.97  41 1.99
 185  0.833  0.666  0.130-  31 1.97  42 1.98  45 1.98  90 1.99
 186  0.829  0.664  0.463- 191 1.88  43 2.03  46 2.03  91 2.07
 187  0.832  0.666  0.793-  92 1.93  32 1.98  47 2.01  44 2.01
 188  0.833  0.917  0.128-  33 1.97  45 1.97  36 1.98  93 1.98
 189  0.833  0.916  0.460-  34 1.96  46 1.96  37 1.99  94 2.00
 190  0.833  0.916  0.794-  95 1.97  35 1.97  47 1.97  38 1.99
 191  0.667  0.583  0.492- 174 1.88 171 1.88 186 1.88
 
  LATTYP: Found a hexagonal cell.
 ALAT       =    12.9943542480
 C/A-ratio  =     1.2014478222
  
  Lattice vectors:
  
 A1 = (  12.9943542480,   0.0000000000,   0.0000000000)
 A2 = (  -6.4971766472,  11.2534400587,   0.0000000000)
 A3 = (   0.0000000000,   0.0000000000,  15.6120386124)


Analysis of symmetry for initial positions (statically):
=====================================================================
 Subroutine PRICEL returns:
 Original cell was already a primitive cell.
 

 Routine SETGRP: Setting up the symmetry group for a 
 hexagonal supercell.


 Subroutine GETGRP returns: Found  2 space group operations
 (whereof  1 operations were pure point group operations)
 out of a pool of 24 trial point group operations.


The static configuration has the point symmetry C_1 .
 The point group associated with its full space group is C_1h.


Analysis of symmetry for dynamics (positions and initial velocities):
=====================================================================
 Subroutine PRICEL returns:
 Original cell was already a primitive cell.
 

 Routine SETGRP: Setting up the symmetry group for a 
 hexagonal supercell.


 Subroutine GETGRP returns: Found  2 space group operations
 (whereof  1 operations were pure point group operations)
 out of a pool of 24 trial point group operations.


The dynamic configuration has the point symmetry C_1 .
 The point group associated with its full space group is C_1h.


Analysis of structural, dynamic, and magnetic symmetry:
=====================================================================
 Subroutine PRICEL returns:
 Original cell was already a primitive cell.
 

 Routine SETGRP: Setting up the symmetry group for a 
 hexagonal supercell.


 Subroutine GETGRP returns: Found  2 space group operations
 (whereof  1 operations were pure point group operations)
 out of a pool of 24 trial point group operations.


The overall configuration has the point symmetry C_1 .
 The point group associated with its full space group is C_1h.


 Subroutine INISYM returns: Found  2 space group operations
 (whereof  1 operations are pure point group operations),
 and found     1 'primitive' translations


----------------------------------------------------------------------------------------

                                     Primitive cell                                     

  volume of cell :    2282.9669

  direct lattice vectors                    reciprocal lattice vectors
    12.994354248  0.000000000  0.000000000     0.076956498  0.044430855  0.000000000
    -6.497176647 11.253440059  0.000000000     0.000000000  0.088861716  0.000000000
     0.000000000  0.000000000 15.612038612     0.000000000  0.000000000  0.064053134

  length of vectors
    12.994354248 12.994353294 15.612038612     0.088861710  0.088861716  0.064053134

  position of ions in fractional coordinates (direct lattice)
     0.166576875  0.083423117  0.166239169
     0.166619091  0.083380901  0.499144024
     0.166584387  0.083415605  0.833629143
     0.166082403  0.333024606  0.166241212
     0.165881177  0.332925228  0.499353284
     0.166184373  0.333066174  0.833720074
     0.166570343  0.583139090  0.166248827
     0.166614361  0.583220342  0.499132988
     0.166567172  0.583144388  0.833651587
     0.166975760  0.833488284  0.166230871
     0.167451013  0.833732568  0.499699929
     0.166887713  0.833449399  0.833638838
     0.416511716  0.083024232  0.166230871
     0.416267432  0.082548979  0.499699929
     0.416550601  0.083112279  0.833638838
     0.415569240  0.332579906  0.166770291
     0.412441563  0.330576864  0.499752684
     0.415699245  0.332885775  0.835009415
     0.415553470  0.582986920  0.166771642
     0.412401114  0.581897248  0.499752147
     0.415641605  0.582841461  0.835007161
     0.416496679  0.833503321  0.166226228
     0.416250189  0.833749811  0.499694146
     0.416497461  0.833502539  0.833652652
     0.666860910  0.083429649  0.166248827
     0.666779658  0.083385631  0.499132988
     0.666855612  0.083432820  0.833651587
     0.667034827  0.332580751  0.166775938
     0.668169950  0.330522334  0.499745589
     0.667242109  0.332858508  0.835012041
     0.666658844  0.583341156  0.168795302
     0.666641273  0.583358727  0.835504038
     0.667013080  0.834446530  0.166771642
     0.668102752  0.837598886  0.499752147
     0.667158539  0.834358395  0.835007161
     0.916975394  0.083917589  0.166241212
     0.917074772  0.084118815  0.499353284
     0.916933826  0.083815619  0.833720074
     0.916984761  0.333015239  0.166247709
     0.917102040  0.332897960  0.499345295
     0.916945252  0.333054748  0.833716456
     0.917419249  0.582965173  0.166775938
     0.919477666  0.581830050  0.499745589
     0.917141492  0.582757891  0.835012041
     0.917420094  0.834430760  0.166770291
     0.919423136  0.837558437  0.499752684
     0.917114225  0.834300755  0.835009415
     0.083349662  0.166650330  0.000047343
     0.083256117  0.166743875  0.332557886
     0.083007908  0.166992084  0.666644549
     0.083357715  0.416687392  0.000061585
     0.083271134  0.416495854  0.332558428
     0.083031317  0.415995479  0.666636750
     0.083546334  0.666803683  0.000292438
     0.084646746  0.667221438  0.332390945
     0.085343206  0.667026819  0.667029582
     0.083534686  0.916735688  0.000296902
     0.084643171  0.917431931  0.332398929
     0.085284359  0.918283924  0.667017355
     0.333264312  0.166465306  0.000296902
     0.332568069  0.165356821  0.332398929
     0.331716076  0.164715633  0.667017355
     0.333127895  0.416575015  0.000629392
     0.331974190  0.415988125  0.332493163
     0.331803967  0.415923524  0.667914941
     0.333249977  0.666820450  0.000289478
     0.332568183  0.667233900  0.332392624
     0.331654032  0.667075496  0.667029568
     0.333312659  0.916687341  0.999939447
     0.333331737  0.916668263  0.332499448
     0.333285585  0.916714415  0.666602400
     0.583196317  0.166453658  0.000292438
     0.582778562  0.165353246  0.332390945
     0.582973181  0.164656786  0.667029582
     0.583430263  0.416802455  0.002321631
     0.581835193  0.413640562  0.330103396
     0.576940265  0.403730045  0.669630654
     0.583394428  0.666605572  0.002323381
     0.581813559  0.668186441  0.330109292
     0.576786638  0.673213362  0.669638544
     0.583179550  0.916750023  0.000289478
     0.582766100  0.917431817  0.332392624
     0.582924504  0.918345968  0.667029568
     0.833312608  0.166642277  0.000061585
     0.833504146  0.166728858  0.332558428
     0.834004521  0.166968675  0.666636750
     0.833462716  0.416537284  0.000647517
     0.834036995  0.415963005  0.332488469
     0.834146574  0.415853426  0.667907963
     0.833197545  0.666569737  0.002321631
     0.836359438  0.668164807  0.330103396
     0.846269955  0.673059735  0.669630654
     0.833424985  0.916872105  0.000629392
     0.834011875  0.918025810  0.332493163
     0.834076476  0.918196033  0.667914941
     0.166560097  0.083439895  0.293665463
     0.166440344  0.083559648  0.626278682
     0.166740015  0.083259977  0.960172542
     0.166452182  0.333203635  0.293608700
     0.167156351  0.333556997  0.626418434
     0.166976871  0.333475434  0.960284428
     0.166544878  0.583093781  0.293665724
     0.166399719  0.582829006  0.626267799
     0.166734766  0.583458095  0.960182173
     0.166703272  0.833349343  0.293630517
     0.166087875  0.833043188  0.626762756
     0.166504771  0.833248183  0.960164665
     0.416650657  0.083296720  0.293630517
     0.416956812  0.083912117  0.626762756
     0.416751817  0.083495221  0.960164665
     0.416281328  0.333052600  0.294830712
     0.417093101  0.334151860  0.626490513
     0.417548765  0.333910136  0.961021084
     0.416258273  0.583210104  0.294828259
     0.416957219  0.582963750  0.626495780
     0.417512641  0.583644607  0.961025099
     0.416635910  0.833364090  0.293625855
     0.416893963  0.833106037  0.626765626
     0.416726165  0.833273835  0.960176459
     0.666906219  0.083455114  0.293665724
     0.667170994  0.083600273  0.626267799
     0.666541905  0.083265226  0.960182173
     0.666801994  0.333060026  0.294836315
     0.667118442  0.334063982  0.626478551
     0.666393793  0.333874622  0.961027785
     0.666660327  0.583339673  0.299073901
     0.666666788  0.583333212  0.961285521
     0.666789896  0.833741727  0.294828259
     0.667036250  0.833042781  0.626495780
     0.666355393  0.832487359  0.961025099
     0.916796365  0.083547810  0.293608700
     0.916443003  0.082843641  0.626418434
     0.916524566  0.083023121  0.960284428
     0.916799922  0.333200078  0.293617817
     0.916478590  0.333521410  0.626402472
     0.916544137  0.333455863  0.960292083
     0.916939974  0.583198006  0.294836315
     0.915936018  0.582881558  0.626478551
     0.916125378  0.583606207  0.961027785
     0.916947400  0.833718672  0.294830712
     0.915848140  0.832906899  0.626490513
     0.916089864  0.832451235  0.961021084
     0.083368765  0.166631227  0.126950210
     0.083447066  0.166552926  0.460025268
     0.083367220  0.166632772  0.793249650
     0.083377360  0.416735950  0.126966546
     0.083463268  0.416889411  0.460020333
     0.083394206  0.416727915  0.793251186
     0.083284223  0.666661667  0.127272328
     0.083165306  0.667043853  0.460118655
     0.082609143  0.666426357  0.793335397
     0.083281232  0.916626006  0.127261236
     0.083132382  0.916114593  0.460131179
     0.082579438  0.916167924  0.793328095
     0.333373994  0.166718760  0.127261236
     0.333885407  0.166867610  0.460131179
     0.333832076  0.167420554  0.793328095
     0.333329451  0.416665819  0.127673277
     0.334068674  0.417052991  0.460298290
     0.333934639  0.416988074  0.793870833
     0.333364276  0.666675870  0.127270706
     0.333861020  0.667079166  0.460118991
     0.333791058  0.666485484  0.793332374
     0.333319102  0.916680898  0.126881810
     0.333309563  0.916690437  0.460005726
     0.333295390  0.916704610  0.793193605
     0.583338333  0.166715769  0.127272328
     0.582956147  0.166834686  0.460118655
     0.583573643  0.167390849  0.793335397
     0.583592913  0.417159570  0.129672858
     0.585588080  0.421036067  0.462845762
     0.583946672  0.417825430  0.792689689
     0.583565464  0.666434536  0.129674527
     0.585480146  0.664519854  0.462859767
     0.583877445  0.666122555  0.792687669
     0.583324130  0.916635724  0.127270706
     0.582920834  0.916138980  0.460118991
     0.583514516  0.916208942  0.793332374
     0.833264050  0.166622632  0.126966546
     0.833110589  0.166536724  0.460020333
     0.833272085  0.166605786  0.793251186
     0.833351042  0.416648958  0.127692362
     0.833006890  0.416993110  0.460290529
     0.833078762  0.416921238  0.793857328
     0.832840430  0.666407087  0.129672858
     0.828963933  0.664411920  0.462845762
     0.832174570  0.666053328  0.792689689
     0.833334181  0.916670549  0.127673277
     0.832947009  0.915931326  0.460298290
     0.833011926  0.916065361  0.793870833
     0.666621984  0.583378016  0.491908335

  ion indices of the primitive-cell ions
   primitive index   ion index
                 1           1
                 2           2
                 3           3
                 4           4
                 5           5
                 6           6
                 7           7
                 8           8
                 9           9
                10          10
                11          11
                12          12
                13          13
                14          14
                15          15
                16          16
                17          17
                18          18
                19          19
                20          20
                21          21
                22          22
                23          23
                24          24
                25          25
                26          26
                27          27
                28          28
                29          29
                30          30
                31          31
                32          32
                33          33
                34          34
                35          35
                36          36
                37          37
                38          38
                39          39
                40          40
                41          41
                42          42
                43          43
                44          44
                45          45
                46          46
                47          47
                48          48
                49          49
                50          50
                51          51
                52          52
                53          53
                54          54
                55          55
                56          56
                57          57
                58          58
                59          59
                60          60
                61          61
                62          62
                63          63
                64          64
                65          65
                66          66
                67          67
                68          68
                69          69
                70          70
                71          71
                72          72
                73          73
                74          74
                75          75
                76          76
                77          77
                78          78
                79          79
                80          80
                81          81
                82          82
                83          83
                84          84
                85          85
                86          86
                87          87
                88          88
                89          89
                90          90
                91          91
                92          92
                93          93
                94          94
                95          95
                96          96
                97          97
                98          98
                99          99
               100         100
               101         101
               102         102
               103         103
               104         104
               105         105
               106         106
               107         107
               108         108
               109         109
               110         110
               111         111
               112         112
               113         113
               114         114
               115         115
               116         116
               117         117
               118         118
               119         119
               120         120
               121         121
               122         122
               123         123
               124         124
               125         125
               126         126
               127         127
               128         128
               129         129
               130         130
               131         131
               132         132
               133         133
               134         134
               135         135
               136         136
               137         137
               138         138
               139         139
               140         140
               141         141
               142         142
               143         143
               144         144
               145         145
               146         146
               147         147
               148         148
               149         149
               150         150
               151         151
               152         152
               153         153
               154         154
               155         155
               156         156
               157         157
               158         158
               159         159
               160         160
               161         161
               162         162
               163         163
               164         164
               165         165
               166         166
               167         167
               168         168
               169         169
               170         170
               171         171
               172         172
               173         173
               174         174
               175         175
               176         176
               177         177
               178         178
               179         179
               180         180
               181         181
               182         182
               183         183
               184         184
               185         185
               186         186
               187         187
               188         188
               189         189
               190         190
               191         191

----------------------------------------------------------------------------------------

 
 
 KPOINTS: pymatgen with grid density = 659 / numbe

Automatic generation of k-mesh.
 Grid dimensions read from file:
 generate k-points for:    1    1    1

 Generating k-lattice:

  Cartesian coordinates                     Fractional coordinates (reciprocal lattice)
     0.076956498  0.044430855  0.000000000     1.000000000  0.000000000  0.000000000
     0.000000000  0.088861716  0.000000000     0.000000000  1.000000000  0.000000000
     0.000000000  0.000000000  0.064053134     0.000000000  0.000000000  1.000000000

  Length of vectors
     0.088861710  0.088861716  0.064053134

  Shift w.r.t. Gamma in fractional coordinates (k-lattice)
     0.000000000  0.000000000  0.000000000

 
 Subroutine IBZKPT returns following result:
 ===========================================
 
 Found      1 irreducible k-points:
 
 Following reciprocal coordinates:
            Coordinates               Weight
  0.000000  0.000000  0.000000      1.000000
 
 Following cartesian coordinates:
            Coordinates               Weight
  0.000000  0.000000  0.000000      1.000000
 
 
 Subroutine IBZKPT_HF returns following result:
 ==============================================
 
 Found      1 k-points in 1st BZ
 the following      1 k-points will be used (e.g. in the exchange kernel)
 Following reciprocal coordinates:   # in IRBZ
  0.000000  0.000000  0.000000    1.00000000   1 t-inv F


--------------------------------------------------------------------------------------------------------




 Dimension of arrays:
   k-points           NKPTS =      1   k-points in BZ     NKDIM =      1   number of bands    NBANDS=   1344
   number of dos      NEDOS =    301   number of ions     NIONS =    191
   non local maximal  LDIM  =      6   non local SUM 2l+1 LMDIM =     18
   total plane-waves  NPLWV = 327680
   max r-space proj   IRMAX =   2514   max aug-charges    IRDMAX=   8903
   dimension x,y,z NGX =    64 NGY =   64 NGZ =   80
   dimension x,y,z NGXF=   128 NGYF=  128 NGZF=  160
   support grid    NGXF=   128 NGYF=  128 NGZF=  160
   ions per type =              95  95   1
   NGX,Y,Z   is equivalent  to a cutoff of   8.19,  8.19,  8.52 a.u.
   NGXF,Y,Z  is equivalent  to a cutoff of  16.38, 16.38, 17.04 a.u.

 SYSTEM =  zno                                     
 POSCAR =  Zn2 O2                                  

 Startparameter for this run:
   NWRITE =      2    write-flag & timer
   PREC   = normal    normal or accurate (medium, high low for compatibility)
   ISTART =      1    job   : 0-new  1-cont  2-samecut
   ICHARG =      1    charge: 1-file 2-atom 10-const
   ISPIN  =      2    spin polarized calculation?
   LNONCOLLINEAR =      F non collinear calculations
   LSORBIT =      F    spin-orbit coupling
   INIWAV =      1    electr: 0-lowe 1-rand  2-diag
   LASPH  =      F    aspherical Exc in radial PAW
 Electronic Relaxation 1
   ENCUT  =  400.0 eV  29.40 Ry    5.42 a.u.  21.19 21.19 25.46*2*pi/ulx,y,z
   ENINI  =  400.0     initial cutoff
   ENAUG  =  605.4 eV  augmentation charge cutoff
   NELM   =   1500;   NELMIN=  4; NELMDL=  0     # of ELM steps 
   EDIFF  = 0.1E-05   stopping-criterion for ELM
   LREAL  =      T    real-space projection
   NLSPLINE    = F    spline interpolate recip. space projectors
   LCOMPAT=      F    compatible to vasp.4.4
   GGA_COMPAT  = T    GGA compatible to vasp.4.4-vasp.4.6
   LMAXPAW     = -100 max onsite density
   LMAXMIX     =    2 max onsite mixed and CHGCAR
   VOSKOWN=      0    Vosko Wilk Nusair interpolation
   ROPT   =   -0.00050  -0.00050  -0.00050
 Ionic relaxation
   EDIFFG = -.1E-01   stopping-criterion for IOM
   NSW    =     40    number of steps for IOM
   NBLOCK =      1;   KBLOCK =     40    inner block; outer block 
   IBRION =      2    ionic relax: 0-MD 1-quasi-New 2-CG
   NFREE  =      1    steps in history (QN), initial steepest desc. (CG)
   ISIF   =      2    stress and relaxation
   IWAVPR =     11    prediction:  0-non 1-charg 2-wave 3-comb
   ISYM   =      3    0-nonsym 1-usesym 2-fastsym
   LCORR  =      T    Harris-Foulkes like correction to forces

   POTIM  = 0.2000    time-step for ionic-motion
   TEIN   =    0.0    initial temperature
   TEBEG  =    0.0;   TEEND  =   0.0 temperature during run
   SMASS  =  -3.00    Nose mass-parameter (am)
   estimated Nose-frequenzy (Omega)   =  0.10E-29 period in steps = 0.31E+47 mass=  -0.386E-26a.u.
   SCALEE = 1.0000    scale energy and forces
   NPACO  =    256;   APACO  = 10.0  distance and # of slots for P.C.
   PSTRESS=    0.0 pullay stress

  Mass of Ions in am
   POMASS =  65.39 16.00 50.94
  Ionic Valenz
   ZVAL   =  12.00  6.00  5.00
  Atomic Wigner-Seitz radii
   RWIGS  =  -1.00 -1.00 -1.00
  virtual crystal weights 
   VCA    =   1.00  1.00  1.00
   NELECT =    1714.0000    total number of electrons
   NUPDOWN=      -1.0000    fix difference up-down

 DOS related values:
   EMIN   =  10.00;   EMAX   =-10.00  energy-range for DOS
   EFERMI =   0.00;   METHOD = LEGACY      
   ISMEAR =    -2;   SIGMA  =   0.01  broadening in eV -4-tet -1-fermi 0-gaus

 Electronic relaxation 2 (details)
   IALGO  =     53    algorithm
   LDIAG  =      F    sub-space diagonalisation (order eigenvalues)
   LSUBROT=      F    optimize rotation matrix (better conditioning)
   TURBO    =      0    0=normal 1=particle mesh
   IRESTART =      0    0=no restart 2=restart with 2 vectors
   NREBOOT  =      0    no. of reboots
   NMIN     =      0    reboot dimension
   EREF     =   0.00    reference energy to select bands
   IMIX   =      4    mixing-type and parameters
     AMIX     =   0.40;   BMIX     =  1.00
     AMIX_MAG =   1.60;   BMIX_MAG =  1.00
     AMIN     =   0.10
     WC   =   100.;   INIMIX=   1;  MIXPRE=   1;  MAXMIX= -45

 Intra band minimization:
   WEIMIN = 0.0010     energy-eigenvalue tresh-hold
   EBREAK =  0.19E-09  absolut break condition
   DEPER  =   0.30     relativ break condition  

   TIME   =   0.30     timestep for ELM

  volume/ion in A,a.u.               =      11.95        80.66
  Fermi-wavevector in a.u.,A,eV,Ry     =   1.487917  2.811755 30.121878  2.213896
  Thomas-Fermi vector in A             =   2.601017
 
 Write flags
   LWAVE        =      T    write WAVECAR
   LDOWNSAMPLE  =      F    k-point downsampling of WAVECAR
   LCHARG       =      T    write CHGCAR
   LVTOT        =      F    write LOCPOT, total local potential
   LVHAR        =      T    write LOCPOT, Hartree potential only
   LELF         =      F    write electronic localiz. function (ELF)
   LORBIT       =     11    0 simple, 1 ext, 2 COOP (PROOUT), +10 PAW based schemes


 Dipole corrections
   LMONO  =      F    monopole corrections only (constant potential shift)
   LDIPOL =      F    correct potential (dipole corrections)
   IDIPOL =      0    1-x, 2-y, 3-z, 4-all directions 
   EPSILON=  1.0000000 bulk dielectric constant

 Exchange correlation treatment:
   GGA     =    PE    GGA type
   LEXCH   =     8    internal setting for exchange type
   LIBXC   =     F    Libxc                    
   VOSKOWN =     0    Vosko Wilk Nusair interpolation
   EXXOEP  =     0    0=HF, 1=EXX-LHF (local Hartree Fock) 2=EXX OEP
   LHFCALC =     T    Hartree Fock is set to
   LSYMGRAD=     F    symmetrize gradient (conserves proper symmetry)
   PRECFOCK=normal    Normal, Fast or Accurate (Low or Medium for compatibility)
   LRHFCALC=     F    long range Hartree Fock
   LRSCOR  =     F    long range correlation only (use DFT for short range part)
   LTHOMAS =     F    Thomas Fermi screening in HF
   LMODELHF=     F    short range full HF, long range fraction AEXX
   FOCKCORR=     1    mode to apply convergence corrections
   LFOCKACE=     T    use Adeptively-Compressed-Exchange operator
   ENCUT4O =  -1.0   cutoff for four orbital integrals eV
   LMAXFOCK=     4    L truncation for augmentation on plane wave grid
   LMAXFOCKAE=  -1    L truncation for all-electron charge restoration on plane wave grid
   NMAXFOCKAE=   1    number of basis functions for all-electron charge restoration
   LFOCKAEDFT=     F  apply the AE augmentation even for DFT
   NKREDX  =     1    reduce k-point grid by
   NKREDY  =     1    reduce k-point grid by
   NKREDZ  =     1    reduce k-point grid by
   SHIFTRED=     F    shift reduced grid of Gamma
   HFKIDENT=     F    idential grid for each k-point
   ODDONLY =     F    use only odd q-grid points
   EVENONLY=     F    use only even q-grid points
   HFALPHA =   -1.0000 decay constant for conv. correction
   MCALPHA =    0.0000 extent of test-charge in conv. correction in multipole expansion
   AEXX    =    0.3750 exact exchange contribution
   HFSCREEN=    0.2000 screening length (either q_TF or 0.3 A-1)
   HFSCREENC=   0.2000 screening length for correlation (either q_TF or 0.3 A-1)
   HFRCUT  =    0.0000 spherical cutoff for potential kernel
   ALDAX   =    0.6250 LDA exchange part
   AGGAX   =    0.6250 GGA exchange part
   ALDAC   =    1.0000 LDA correlation
   AGGAC   =    1.0000 GGA correlation
   ENCUTFOCK=  -1.0 apply spherical cutoff to Coloumb kernel
   NBANDSGWLOW=     1    first orbital included in HF term
   NBLOCK_FOCK=    64    blocking factor in FOCK_ACC

 Linear response parameters
   LEPSILON=     F    determine dielectric tensor
   LRPA    =     F    only Hartree local field effects (RPA)
   LNABLA  =     F    use nabla operator in PAW spheres
   LVEL    =     F    velocity operator in full k-point grid
   CSHIFT  =0.1000    complex shift for real part using Kramers Kronig
   OMEGAMAX=  -1.0    maximum frequency
   DEG_THRESHOLD= 0.2000000E-02 threshold for treating states as degnerate
   RTIME   =   -0.100 relaxation time in fs
  (WPLASMAI=    0.000 imaginary part of plasma frequency in eV, 0.658/RTIME)
   DFIELD  = 0.0000000 0.0000000 0.0000000 field for delta impulse in time
 
  Optional k-point grid parameters
   LKPOINTS_OPT  =     F    use optional k-point grid
   KPOINTS_OPT_MODE=     1    mode for optional k-point grid
 
 Orbital magnetization related:
   ORBITALMAG=     F  switch on orbital magnetization
   LCHIMAG   =     F  perturbation theory with respect to B field
   DQ        =  0.001000  dq finite difference perturbation B field
   LLRAUG    =     F  two centre corrections for induced B field
   LBONE     =     F  B-component reconstruction in AE one-centre
   LVGVCALC  =     T  calculate vGv susceptibility
   LVGVAPPL  =     F  apply vGv susceptibility instead of pGv for G=0

 Random number generation:
   RANDOM_GENERATOR = DEFAULT
   PCG_SEED         = not used


--------------------------------------------------------------------------------------------------------


 conjugate gradient relaxation of ions
 charge density and potential will be updated during run
 spin polarized calculation
 Conjugate gradient for all bands (Kresse, et al. variant)
 perform Loewdin sub-space diagonalisation
    ordering is kept fixed
    before iterative eigenvector-optimisation
 modified Broyden-mixing scheme, WC =      100.0
 initial mixing is a Kerker type mixing with AMIX =  0.4000 and BMIX =      1.0000
 Hartree-type preconditioning will be used
 using additional bands          487
 real space projection scheme for non local part
 use partial core corrections
 no Harris-corrections to forces 
 use gradient corrections 
 use of overlap-Matrix (Vanderbilt PP)
 partial occupancies read from INCAR or WAVECAR (fixed during run)


--------------------------------------------------------------------------------------------------------


  energy-cutoff  :      400.00
  volume of cell :     2282.97
      direct lattice vectors                 reciprocal lattice vectors
    12.994354248  0.000000000  0.000000000     0.076956498  0.044430855  0.000000000
    -6.497176647 11.253440059  0.000000000     0.000000000  0.088861716  0.000000000
     0.000000000  0.000000000 15.612038612     0.000000000  0.000000000  0.064053134

  length of vectors
    12.994354248 12.994353294 15.612038612     0.088861710  0.088861716  0.064053134


 
 old parameters found on file WAVECAR:
  energy-cutoff  :      400.00
  volume of cell :     2282.97
      direct lattice vectors                 reciprocal lattice vectors
    12.994354248  0.000000000  0.000000000     0.076956498  0.044430855  0.000000000
    -6.497176647 11.253440059  0.000000000     0.000000000  0.088861716  0.000000000
     0.000000000  0.000000000 15.612038612     0.000000000  0.000000000  0.064053134

  length of vectors

 
 k-points in units of 2pi/SCALE and weight: pymatgen with grid density = 659 / numbe
   0.00000000  0.00000000  0.00000000       1.000
 
 k-points in reciprocal lattice and weights: pymatgen with grid density = 659 / numbe
   0.00000000  0.00000000  0.00000000       1.000
 
 position of ions in fractional coordinates (direct lattice) 
   0.16657687  0.08342312  0.16623917
   0.16661909  0.08338090  0.49914402
   0.16658439  0.08341560  0.83362914
   0.16608240  0.33302461  0.16624121
   0.16588118  0.33292523  0.49935328
   0.16618437  0.33306617  0.83372007
   0.16657034  0.58313909  0.16624883
   0.16661436  0.58322034  0.49913299
   0.16656717  0.58314439  0.83365159
   0.16697576  0.83348828  0.16623087
   0.16745101  0.83373257  0.49969993
   0.16688771  0.83344940  0.83363884
   0.41651172  0.08302423  0.16623087
   0.41626743  0.08254898  0.49969993
   0.41655060  0.08311228  0.83363884
   0.41556924  0.33257991  0.16677029
   0.41244156  0.33057686  0.49975268
   0.41569924  0.33288577  0.83500942
   0.41555347  0.58298692  0.16677164
   0.41240111  0.58189725  0.49975215
   0.41564160  0.58284146  0.83500716
   0.41649668  0.83350332  0.16622623
   0.41625019  0.83374981  0.49969415
   0.41649746  0.83350254  0.83365265
   0.66686091  0.08342965  0.16624883
   0.66677966  0.08338563  0.49913299
   0.66685561  0.08343282  0.83365159
   0.66703483  0.33258075  0.16677594
   0.66816995  0.33052233  0.49974559
   0.66724211  0.33285851  0.83501204
   0.66665884  0.58334116  0.16879530
   0.66664127  0.58335873  0.83550404
   0.66701308  0.83444653  0.16677164
   0.66810275  0.83759889  0.49975215
   0.66715854  0.83435840  0.83500716
   0.91697539  0.08391759  0.16624121
   0.91707477  0.08411881  0.49935328
   0.91693383  0.08381562  0.83372007
   0.91698476  0.33301524  0.16624771
   0.91710204  0.33289796  0.49934529
   0.91694525  0.33305475  0.83371646
   0.91741925  0.58296517  0.16677594
   0.91947767  0.58183005  0.49974559
   0.91714149  0.58275789  0.83501204
   0.91742009  0.83443076  0.16677029
   0.91942314  0.83755844  0.49975268
   0.91711423  0.83430076  0.83500942
   0.08334966  0.16665033  0.00004734
   0.08325612  0.16674388  0.33255789
   0.08300791  0.16699208  0.66664455
   0.08335772  0.41668739  0.00006158
   0.08327113  0.41649585  0.33255843
   0.08303132  0.41599548  0.66663675
   0.08354633  0.66680368  0.00029244
   0.08464675  0.66722144  0.33239095
   0.08534321  0.66702682  0.66702958
   0.08353469  0.91673569  0.00029690
   0.08464317  0.91743193  0.33239893
   0.08528436  0.91828392  0.66701735
   0.33326431  0.16646531  0.00029690
   0.33256807  0.16535682  0.33239893
   0.33171608  0.16471563  0.66701735
   0.33312790  0.41657502  0.00062939
   0.33197419  0.41598812  0.33249316
   0.33180397  0.41592352  0.66791494
   0.33324998  0.66682045  0.00028948
   0.33256818  0.66723390  0.33239262
   0.33165403  0.66707550  0.66702957
   0.33331266  0.91668734  0.99993945
   0.33333174  0.91666826  0.33249945
   0.33328559  0.91671441  0.66660240
   0.58319632  0.16645366  0.00029244
   0.58277856  0.16535325  0.33239095
   0.58297318  0.16465679  0.66702958
   0.58343026  0.41680245  0.00232163
   0.58183519  0.41364056  0.33010340
   0.57694026  0.40373004  0.66963065
   0.58339443  0.66660557  0.00232338
   0.58181356  0.66818644  0.33010929
   0.57678664  0.67321336  0.66963854
   0.58317955  0.91675002  0.00028948
   0.58276610  0.91743182  0.33239262
   0.58292450  0.91834597  0.66702957
   0.83331261  0.16664228  0.00006158
   0.83350415  0.16672886  0.33255843
   0.83400452  0.16696868  0.66663675
   0.83346272  0.41653728  0.00064752
   0.83403699  0.41596301  0.33248847
   0.83414657  0.41585343  0.66790796
   0.83319755  0.66656974  0.00232163
   0.83635944  0.66816481  0.33010340
   0.84626996  0.67305974  0.66963065
   0.83342498  0.91687210  0.00062939
   0.83401188  0.91802581  0.33249316
   0.83407648  0.91819603  0.66791494
   0.16656010  0.08343990  0.29366546
   0.16644034  0.08355965  0.62627868
   0.16674002  0.08325998  0.96017254
   0.16645218  0.33320364  0.29360870
   0.16715635  0.33355700  0.62641843
   0.16697687  0.33347543  0.96028443
   0.16654488  0.58309378  0.29366572
   0.16639972  0.58282901  0.62626780
   0.16673477  0.58345809  0.96018217
   0.16670327  0.83334934  0.29363052
   0.16608787  0.83304319  0.62676276
   0.16650477  0.83324818  0.96016467
   0.41665066  0.08329672  0.29363052
   0.41695681  0.08391212  0.62676276
   0.41675182  0.08349522  0.96016467
   0.41628133  0.33305260  0.29483071
   0.41709310  0.33415186  0.62649051
   0.41754876  0.33391014  0.96102108
   0.41625827  0.58321010  0.29482826
   0.41695722  0.58296375  0.62649578
   0.41751264  0.58364461  0.96102510
   0.41663591  0.83336409  0.29362585
   0.41689396  0.83310604  0.62676563
   0.41672617  0.83327383  0.96017646
   0.66690622  0.08345511  0.29366572
   0.66717099  0.08360027  0.62626780
   0.66654191  0.08326523  0.96018217
   0.66680199  0.33306003  0.29483632
   0.66711844  0.33406398  0.62647855
   0.66639379  0.33387462  0.96102779
   0.66666033  0.58333967  0.29907390
   0.66666679  0.58333321  0.96128552
   0.66678990  0.83374173  0.29482826
   0.66703625  0.83304278  0.62649578
   0.66635539  0.83248736  0.96102510
   0.91679636  0.08354781  0.29360870
   0.91644300  0.08284364  0.62641843
   0.91652457  0.08302312  0.96028443
   0.91679992  0.33320008  0.29361782
   0.91647859  0.33352141  0.62640247
   0.91654414  0.33345586  0.96029208
   0.91693997  0.58319801  0.29483632
   0.91593602  0.58288156  0.62647855
   0.91612538  0.58360621  0.96102779
   0.91694740  0.83371867  0.29483071
   0.91584814  0.83290690  0.62649051
   0.91608986  0.83245124  0.96102108
   0.08336877  0.16663123  0.12695021
   0.08344707  0.16655293  0.46002527
   0.08336722  0.16663277  0.79324965
   0.08337736  0.41673595  0.12696655
   0.08346327  0.41688941  0.46002033
   0.08339421  0.41672792  0.79325119
   0.08328422  0.66666167  0.12727233
   0.08316531  0.66704385  0.46011865
   0.08260914  0.66642636  0.79333540
   0.08328123  0.91662601  0.12726124
   0.08313238  0.91611459  0.46013118
   0.08257944  0.91616792  0.79332809
   0.33337399  0.16671876  0.12726124
   0.33388541  0.16686761  0.46013118
   0.33383208  0.16742055  0.79332809
   0.33332945  0.41666582  0.12767328
   0.33406867  0.41705299  0.46029829
   0.33393464  0.41698807  0.79387083
   0.33336428  0.66667587  0.12727071
   0.33386102  0.66707917  0.46011899
   0.33379106  0.66648548  0.79333237
   0.33331910  0.91668090  0.12688181
   0.33330956  0.91669044  0.46000573
   0.33329539  0.91670461  0.79319360
   0.58333833  0.16671577  0.12727233
   0.58295615  0.16683469  0.46011865
   0.58357364  0.16739085  0.79333540
   0.58359291  0.41715957  0.12967286
   0.58558808  0.42103607  0.46284576
   0.58394667  0.41782543  0.79268969
   0.58356546  0.66643454  0.12967453
   0.58548015  0.66451985  0.46285977
   0.58387744  0.66612256  0.79268767
   0.58332413  0.91663572  0.12727071
   0.58292083  0.91613898  0.46011899
   0.58351452  0.91620894  0.79333237
   0.83326405  0.16662263  0.12696655
   0.83311059  0.16653672  0.46002033
   0.83327208  0.16660579  0.79325119
   0.83335104  0.41664896  0.12769236
   0.83300689  0.41699311  0.46029053
   0.83307876  0.41692124  0.79385733
   0.83284043  0.66640709  0.12967286
   0.82896393  0.66441192  0.46284576
   0.83217457  0.66605333  0.79268969
   0.83333418  0.91667055  0.12767328
   0.83294701  0.91593133  0.46029829
   0.83301193  0.91606536  0.79387083
   0.66662198  0.58337802  0.49190833
 
 position of ions in cartesian coordinates  (Angst):
   1.62254419  0.93879705  2.59533233
   1.62336706  0.93832197  7.79265578
   1.62269062  0.93871251 13.01465037
  -0.00558611  3.74767244  2.59536422
  -0.00755523  3.74655410  7.79592275
  -0.00453116  3.74814023 13.01606998
  -1.62428363  6.56232080  2.59548311
  -1.62423955  6.56323516  7.79248348
  -1.62435927  6.56238042 13.01500077
  -3.24557844  9.37961044  2.59520278
  -3.24098999  9.38235948  7.80133459
  -3.24646991  9.37917286 13.01480173
   4.87287769  0.93430822  2.59520278
   4.87279117  0.92895999  7.80133459
   4.87281091  0.93529905 13.01480173
   3.23922352  3.74266803  2.60362422
   3.21159550  3.72012692  7.80215820
   3.23892556  3.74611011 13.03619924
   1.61207999  6.56060836  2.60364531
   1.57819696  6.54834580  7.80214982
   1.61417032  6.55897145 13.03616404
  -0.00331292  9.37977966  2.59513028
  -0.00811739  9.38255352  7.80124431
  -0.00329769  9.37977087 13.01501739
   8.12336973  0.93887055  2.59548311
   8.12259991  0.93837520  7.79248348
   8.12328028  0.93890624 13.01500077
   6.50685095  3.74267755  2.60371239
   6.53497504  3.71951327  7.80204743
   6.50773981  3.74580326 13.03624022
   4.87273064  6.56459474  2.63523877
   4.87238817  6.56479246 13.04392130
   3.24585774  9.39039401  2.60364531
   3.23953591  9.42586885  7.80214982
   3.24832051  9.38940219 13.03616404
  11.37027571  0.94436156  2.59536422
  11.37025966  0.94662604  7.79592275
  11.37039807  0.94321405 13.01606998
   9.75196599  3.74756703  2.59546565
   9.75425193  3.74624724  7.79579802
   9.75119591  3.74801164 13.01601350
   8.13364301  6.56036363  2.60371239
   8.16776591  6.54758959  7.80204743
   8.13138049  6.55803100 13.03624022
   6.49983765  9.39021654  2.60362422
   6.50554482  9.42541366  7.80215820
   6.49670774  9.38875354 13.03619924
   0.00031840  1.87538950  0.00073912
  -0.00150493  1.87644220  5.19190656
  -0.00634291  1.87923541 10.40768044
  -1.62411191  4.68916659  0.00096146
  -1.62399252  4.68701113  5.19191502
  -1.62385777  4.68138018 10.40755868
  -3.24671065  7.50383528  0.00456556
  -3.23512575  7.50853645  5.18930027
  -3.22481122  7.50634633 10.41369160
  -4.87071441 10.31643011  0.00463525
  -4.86083397 10.32426525  5.18942492
  -4.85803769 10.33385309 10.41350070
   3.24900003  1.87330735  0.00463525
   3.24715482  1.86083307  5.18942492
   3.24024964  1.85361750 10.41350070
   1.62222042  4.68790196  0.00982609
   1.61104190  4.68129743  5.19089609
   1.60924968  4.68057045 10.42751384
  -0.00208201  7.50402396  0.00451934
  -0.01362773  7.50867669  5.18932649
  -0.02447736  7.50689411 10.41369138
  -1.62469682 10.31588605 15.61109325
  -1.62432497 10.31567136  5.19099422
  -1.62522453 10.31619072 10.40702241
   6.49678072  1.87317626  0.00456556
   6.49850184  1.86079285  5.18930027
   6.50555581  1.85295527 10.41369160
   4.87326034  4.69046144  0.03624539
   4.87307681  4.65487927  5.15358697
   4.87386076  4.54335186 10.45429963
   3.24977971  7.50160584  0.03627272
   3.21896616  7.51939606  5.15367901
   3.12098377  7.57596622 10.45442281
   1.62175482 10.31659144  0.00451934
   1.61195258 10.32426396  5.18932649
   1.60807152 10.33455131 10.41369138
   9.74565492  1.87529887  0.00096146
   9.74758130  1.87627321  5.19191502
   9.75252522  1.87897198 10.40755868
   8.12399348  4.68747735  0.01010906
   8.13518704  4.68101474  5.19082281
   8.13732292  4.67978160 10.42740491
   6.49604274  7.50120258  0.03624539
   6.52676603  7.51915261  5.15358697
   6.62374360  7.57423739 10.45429963
   4.87273946 10.31796527  0.00982609
   4.87286990 10.33094842  5.19089609
   4.87260337 10.33286402 10.42751384
   1.62221716  0.93898586  4.58471655
   1.61988300  0.94033349  9.77748696
   1.62572405  0.93696116 14.99025080
  -0.00194427  3.74968714  4.58383036
   0.00491011  3.75366367  9.77966878
   0.00310781  3.75274580 14.99199757
  -1.62432015  6.56181091  4.58472062
  -1.62448611  6.55883128  9.77731706
  -1.62421969  6.56591070 14.99040115
  -3.24821653  9.37804688  4.58417096
  -3.25422406  9.37460158  9.78504434
  -3.25013866  9.37690848 14.99012783
   4.87291273  0.93737465  4.58417096
   4.87289268  0.94429998  9.78504434
   4.87293754  0.93960847 14.99012783
   3.24540547  3.74798747  4.60290847
   3.24881185  3.76035793  9.78079408
   3.25630343  3.75763770 15.00349827
   1.61978839  6.56311995  4.60287017
   1.63047135  6.56034761  9.78087630
   1.63326506  6.56800959 15.00356095
  -0.00059910  9.37821284  4.58409818
   0.00443075  9.37530885  9.78508916
   0.00116012  9.37719715 14.99031196
   8.12379305  0.93915712  4.58472062
   8.12629050  0.94079066  9.77731706
   8.12029276  0.93702023 14.99040115
   6.50071150  3.74807104  4.60299594
   6.49830066  3.75936899  9.78060733
   6.49011462  3.75723804 15.00360289
   4.87275955  6.56457804  4.66915330
   4.87288549  6.56450533 15.00762667
   3.24753684  9.38246255  4.60287017
   3.25527923  9.37459701  9.78087630
   3.25004061  9.36834659 15.00356095
  11.37035185  0.94020028  4.58383036
  11.37033526  0.93227594  9.77966878
  11.37022901  0.93429572 14.99199757
   9.74836320  3.74964710  4.58397270
   9.74209994  3.75326320  9.77941959
   9.74337755  3.75252557 14.99211708
   8.12590238  6.56298381  4.60299594
   8.11491265  6.55942267  9.78060733
   8.11266508  6.56757747 15.00360289
   6.49832186  9.38220310  4.60290847
   6.48931191  9.37306786  9.78079408
   6.49541349  9.36794008 15.00349827
   0.00069076  1.87517452  1.98195157
   0.00221696  1.87429337  7.18193225
   0.00066064  1.87519191 12.38424416
  -1.62417213  4.68971303  1.98220662
  -1.62405287  4.69144000  7.18185520
  -1.62390103  4.68962262 12.38426814
  -3.24919391  7.50223711  1.98698051
  -3.25322230  7.50653801  7.18339021
  -3.25643730  7.49958907 12.38558285
  -4.87329525 10.31519582  1.98680734
  -4.87190672 10.30944066  7.18358573
  -4.87943836 10.31004081 12.38546884
   3.24877854  1.87615957  1.98680734
   3.25445692  1.87783465  7.18358573
   3.25017135  1.88405716 12.38546884
   1.62424954  4.68892381  1.99324013
   1.63133974  4.69328084  7.18619467
   1.63001981  4.69255030 12.39394210
   0.00034261  7.50239694  1.98695517
   0.00417718  7.50693541  7.18339546
   0.00712532  7.50025445 12.38553566
  -1.62457123 10.31581354  1.98088372
  -1.62475716 10.31592088  7.18162715
  -1.62503341 10.31608038 12.38336918
   6.49692315  1.87612591  1.98698051
   6.49118426  1.87746414  7.18339021
   6.49559473  1.88372289 12.38558285
   4.87305362  4.69448022  2.02445766
   4.87379326  4.73810414  7.22596591
   4.87332428  4.70197344 12.37550203
   3.25311346  7.49968110  2.02448372
   3.29043354  7.47813435  7.22618456
   3.25919444  7.49617025 12.37547050
   1.62437617 10.31530517  1.98695517
   1.62236303 10.30971509  7.18339546
   1.62962298 10.31050241 12.38553566
   9.74515157  1.87507780  1.98220662
   9.74371561  1.87411104  7.18185520
   9.74536543  1.87488823 12.38426814
   8.12181677  4.68873407  1.99353809
   8.11510872  4.69260697  7.18607351
   8.11650961  4.69179816 12.39373126
   6.49245901  7.49937221  2.02445766
   6.45504940  7.47691972  7.22596591
   6.48610502  7.49539121 12.37550203
   4.87286907 10.31569708  1.99324013
   4.87264088 10.30737827  7.18619467
   4.87261358 10.30888663 12.39394210
   4.87201219  6.56500954  7.67969192
 


--------------------------------------------------------------------------------------------------------


 use parallel FFT for orbitals z direction half grid
 k-point   1 :   0.0000 0.0000 0.0000  plane waves:   20744

 maximum and minimum number of plane-waves per node :      2599     2585

 maximum number of plane-waves:     20744
 maximum index in each direction: 
   IXMAX=   21   IYMAX=   21   IZMAX=   25
   IXMIN=  -21   IYMIN=  -21   IZMIN=    0


 real space projection operators:
  total allocation   :      30027.50 KBytes
  max/ min on nodes  :       4068.70       3469.25


 parallel 3D FFT for wavefunctions:
    minimum data exchange during FFTs selected (reduces bandwidth)
 parallel 3D FFT for charge:
    minimum data exchange during FFTs selected (reduces bandwidth)

 
 Radii for the augmentation spheres in the non-local exchange
 for species   1 augmentation radius   1.190 (default was   0.952)
       energy cutoff for augmentation   1600.0
 for species   2 augmentation radius   0.902 (default was   0.722)
       energy cutoff for augmentation   1600.0
 for species   3 augmentation radius   1.508 (default was   1.206)
       energy cutoff for augmentation   1600.0

 real space projection operators:
  total allocation   :      22169.23 KBytes
  max/ min on nodes  :       2934.95       2505.77

 Maximum index for augmentation-charges in exchange          271
  SETUP_FOCK is finished

 total amount of memory used by VASP MPI-rank0    53903. kBytes
=======================================================================

   base      :      30000. kBytes
   nonlr-proj:       8605. kBytes
   fftplans  :       2267. kBytes
   grid      :       5113. kBytes
   one-center:        373. kBytes
   HF        :        129. kBytes
[...]
      4.87286     10.31560      1.99329        -0.000171     -0.001279     -0.000268
      4.87261     10.30733      7.18625         0.000336      0.000482     -0.000458
      4.87260     10.30893     12.39398        -0.000287      0.001279      0.001711
      4.87237      6.56480      7.67953         0.002010     -0.001160     -0.003373
 -----------------------------------------------------------------------------------
    total drift:                                0.013696     -0.008127      0.139289


--------------------------------------------------------------------------------------------------------



  FREE ENERGIE OF THE ION-ELECTRON SYSTEM (eV)
  ---------------------------------------------------
  free  energy   TOTEN  =     -1221.20755912 eV

  energy  without entropy=    -1221.20755912  energy(sigma->0) =    -1221.20755912
 
 d Force = 0.8131328E-04[ 0.185E-04, 0.144E-03]  d Energy = 0.1057861E-03-0.245E-04
 d Force =-0.9744900E-01[-0.981E-01,-0.968E-01]  d Ewald  =-0.9744576E-01-0.324E-05


--------------------------------------------------------------------------------------------------------


    POTLOK:  cpu time      0.2251: real time      0.2260


--------------------------------------------------------------------------------------------------------


 Steepest descent step on ions:
 trial-energy change:   -0.000106  1 .order   -0.000081   -0.000144   -0.000018
  (g-gl).g = 0.144E-03      g.g   = 0.144E-03  gl.gl    = 0.000E+00
 g(Force)  = 0.144E-03   g(Stress)= 0.000E+00 ortho     = 0.000E+00
 gamma     =   0.00000
 trial     =   1.00000
 opt step  =   1.06556  (harmonic =   1.14721) maximal distance =0.00038516
 next E    = -1221.207560   (d E  =  -0.00011)


--------------------------------------------------------------------------------------------------------


  
 reached required accuracy - stopping structural energy minimisation
 writing wavefunctions
     LOOP+:  cpu time   2203.9849: real time   2248.4546
    4ORBIT:  cpu time      0.0000: real time      0.0000



 total charge

# of ion       s       p       d       tot
------------------------------------------
    1        0.411   0.478   9.951  10.840
    2        0.410   0.477   9.950  10.838
    3        0.409   0.474   9.949  10.832
    4        0.412   0.479   9.951  10.841
    5        0.410   0.476   9.950  10.836
    6        0.409   0.475   9.949  10.834
    7        0.411   0.478   9.951  10.841
    8        0.410   0.477   9.950  10.838
    9        0.409   0.474   9.949  10.832
   10        0.411   0.478   9.951  10.840
   11        0.412   0.480   9.952  10.843
   12        0.410   0.475   9.950  10.834
   13        0.411   0.478   9.951  10.840
   14        0.412   0.480   9.952  10.843
   15        0.410   0.475   9.950  10.834
   16        0.411   0.477   9.950  10.838
   17        0.411   0.477   9.949  10.837
   18        0.409   0.475   9.949  10.833
   19        0.411   0.477   9.950  10.839
   20        0.411   0.477   9.949  10.837
   21        0.409   0.475   9.949  10.833
   22        0.411   0.478   9.951  10.840
   23        0.412   0.480   9.952  10.843
   24        0.410   0.475   9.950  10.834
   25        0.411   0.478   9.951  10.841
   26        0.410   0.477   9.950  10.838
   27        0.409   0.474   9.949  10.832
   28        0.411   0.477   9.950  10.839
   29        0.411   0.477   9.949  10.837
   30        0.409   0.475   9.949  10.833
   31        0.409   0.471   9.947  10.827
   32        0.408   0.478   9.951  10.837
   33        0.411   0.477   9.950  10.839
   34        0.411   0.477   9.949  10.837
   35        0.409   0.475   9.949  10.833
   36        0.412   0.479   9.951  10.841
   37        0.410   0.476   9.950  10.836
   38        0.409   0.475   9.949  10.834
   39        0.412   0.479   9.951  10.841
   40        0.410   0.476   9.950  10.836
   41        0.409   0.475   9.949  10.834
   42        0.411   0.477   9.950  10.839
   43        0.411   0.477   9.949  10.837
   44        0.409   0.475   9.949  10.833
   45        0.411   0.477   9.950  10.838
   46        0.411   0.477   9.949  10.837
   47        0.409   0.475   9.949  10.833
   48        0.410   0.476   9.950  10.836
   49        0.412   0.480   9.952  10.844
   50        0.410   0.477   9.950  10.837
   51        0.410   0.476   9.950  10.836
   52        0.412   0.480   9.952  10.844
   53        0.410   0.477   9.950  10.837
   54        0.410   0.476   9.950  10.835
   55        0.412   0.480   9.952  10.844
   56        0.410   0.477   9.949  10.835
   57        0.410   0.476   9.950  10.835
   58        0.412   0.480   9.952  10.844
   59        0.410   0.476   9.949  10.835
   60        0.410   0.476   9.950  10.835
   61        0.412   0.480   9.952  10.844
   62        0.410   0.476   9.949  10.835
   63        0.410   0.476   9.950  10.835
   64        0.412   0.480   9.952  10.844
   65        0.409   0.477   9.951  10.837
   66        0.410   0.476   9.950  10.835
   67        0.412   0.480   9.952  10.844
   68        0.410   0.477   9.949  10.835
   69        0.410   0.476   9.950  10.836
   70        0.412   0.479   9.951  10.842
   71        0.409   0.474   9.949  10.832
   72        0.410   0.476   9.950  10.835
   73        0.412   0.480   9.952  10.844
   74        0.410   0.477   9.949  10.835
   75        0.410   0.474   9.949  10.833
   76        0.414   0.477   9.949  10.840
   77        0.442   0.464   9.920  10.826
   78        0.410   0.474   9.949  10.833
   79        0.414   0.477   9.949  10.840
   80        0.442   0.464   9.920  10.827
   81        0.410   0.476   9.950  10.835
   82        0.412   0.480   9.952  10.844
   83        0.410   0.477   9.949  10.835
   84        0.410   0.476   9.950  10.836
   85        0.412   0.480   9.952  10.844
   86        0.410   0.477   9.950  10.837
   87        0.410   0.476   9.950  10.835
   88        0.412   0.480   9.952  10.844
   89        0.409   0.477   9.951  10.837
   90        0.410   0.474   9.949  10.833
   91        0.414   0.477   9.949  10.840
   92        0.442   0.464   9.920  10.826
   93        0.410   0.476   9.950  10.835
   94        0.412   0.480   9.952  10.844
   95        0.409   0.477   9.951  10.837
   96        1.575   3.531   0.000   5.106
   97        1.574   3.529   0.000   5.104
   98        1.575   3.528   0.000   5.103
   99        1.575   3.531   0.000   5.106
  100        1.574   3.530   0.000   5.104
  101        1.575   3.528   0.000   5.103
  102        1.575   3.531   0.000   5.106
  103        1.574   3.530   0.000   5.104
  104        1.575   3.528   0.000   5.103
  105        1.575   3.530   0.000   5.106
  106        1.575   3.528   0.000   5.102
  107        1.575   3.528   0.000   5.103
  108        1.575   3.530   0.000   5.106
  109        1.575   3.528   0.000   5.102
  110        1.575   3.528   0.000   5.103
  111        1.575   3.531   0.000   5.106
  112        1.576   3.527   0.000   5.102
  113        1.575   3.528   0.000   5.103
  114        1.575   3.531   0.000   5.106
  115        1.576   3.527   0.000   5.102
  116        1.575   3.528   0.000   5.103
  117        1.575   3.531   0.000   5.106
  118        1.575   3.528   0.000   5.102
  119        1.575   3.528   0.000   5.103
  120        1.575   3.531   0.000   5.106
  121        1.574   3.530   0.000   5.104
  122        1.575   3.528   0.000   5.103
  123        1.575   3.531   0.000   5.106
  124        1.576   3.527   0.000   5.102
  125        1.575   3.528   0.000   5.103
  126        1.575   3.524   0.000   5.100
  127        1.574   3.528   0.000   5.103
  128        1.575   3.531   0.000   5.106
  129        1.576   3.527   0.000   5.102
  130        1.575   3.528   0.000   5.103
  131        1.575   3.531   0.000   5.106
  132        1.574   3.530   0.000   5.104
  133        1.575   3.528   0.000   5.103
  134        1.575   3.531   0.000   5.106
  135        1.574   3.530   0.000   5.104
  136        1.575   3.528   0.000   5.103
  137        1.575   3.531   0.000   5.106
  138        1.576   3.527   0.000   5.102
  139        1.575   3.528   0.000   5.103
  140        1.575   3.531   0.000   5.106
  141        1.576   3.527   0.000   5.102
  142        1.575   3.528   0.000   5.103
  143        1.575   3.530   0.000   5.105
  144        1.575   3.529   0.000   5.104
  145        1.575   3.528   0.000   5.103
  146        1.575   3.530   0.000   5.105
  147        1.575   3.529   0.000   5.104
  148        1.575   3.528   0.000   5.103
  149        1.575   3.529   0.000   5.105
  150        1.575   3.531   0.000   5.105
  151        1.575   3.527   0.000   5.102
  152        1.575   3.529   0.000   5.105
  153        1.575   3.531   0.000   5.105
  154        1.575   3.527   0.000   5.102
  155        1.575   3.529   0.000   5.105
  156        1.575   3.531   0.000   5.105
  157        1.575   3.527   0.000   5.102
  158        1.575   3.529   0.000   5.104
  159        1.575   3.531   0.000   5.106
  160        1.574   3.529   0.000   5.104
  161        1.575   3.529   0.000   5.105
  162        1.575   3.531   0.000   5.105
  163        1.575   3.527   0.000   5.102
  164        1.575   3.530   0.000   5.105
  165        1.575   3.531   0.000   5.106
  166        1.575   3.528   0.000   5.103
  167        1.575   3.529   0.000   5.105
  168        1.575   3.531   0.000   5.105
  169        1.575   3.527   0.000   5.102
  170        1.575   3.527   0.000   5.102
  171        1.583   3.533   0.000   5.116
  172        1.575   3.524   0.000   5.099
  173        1.575   3.527   0.000   5.102
  174        1.583   3.533   0.000   5.116
  175        1.575   3.524   0.000   5.099
  176        1.575   3.529   0.000   5.105
  177        1.575   3.531   0.000   5.105
  178        1.575   3.527   0.000   5.102
  179        1.575   3.530   0.000   5.105
  180        1.575   3.529   0.000   5.104
  181        1.575   3.528   0.000   5.103
  182        1.575   3.529   0.000   5.104
  183        1.575   3.531   0.000   5.106
  184        1.574   3.530   0.000   5.104
  185        1.575   3.527   0.000   5.102
  186        1.583   3.533   0.000   5.116
  187        1.575   3.524   0.000   5.099
  188        1.575   3.529   0.000   5.104
  189        1.575   3.531   0.000   5.106
  190        1.574   3.529   0.000   5.104
  191        0.473   0.694   3.482   4.649
--------------------------------------------------
tot        189.214 381.209 948.6571519.080



 magnetization (x)

# of ion       s       p       d       tot
------------------------------------------
    1       -0.004  -0.000   0.000  -0.003
    2       -0.003  -0.000   0.000  -0.003
    3       -0.002  -0.000   0.000  -0.002
    4       -0.003  -0.000   0.000  -0.003
    5       -0.003  -0.000   0.000  -0.003
    6       -0.002  -0.000   0.000  -0.002
    7       -0.004  -0.000   0.000  -0.003
    8       -0.003  -0.000   0.000  -0.003
    9       -0.002  -0.000   0.000  -0.002
   10       -0.003  -0.000   0.000  -0.003
   11       -0.003  -0.000   0.000  -0.003
   12       -0.002  -0.000   0.000  -0.002
   13       -0.003  -0.000   0.000  -0.003
   14       -0.003  -0.000   0.000  -0.003
   15       -0.002  -0.000   0.000  -0.002
   16       -0.003  -0.000   0.000  -0.003
   17       -0.001   0.000   0.000  -0.001
   18       -0.001  -0.000   0.000  -0.001
   19       -0.003  -0.000   0.000  -0.003
   20       -0.001   0.000   0.000  -0.001
   21       -0.001  -0.000   0.000  -0.001
   22       -0.003  -0.000   0.000  -0.003
   23       -0.003  -0.000   0.000  -0.003
   24       -0.002  -0.000   0.000  -0.002
   25       -0.004  -0.000   0.000  -0.003
   26       -0.003  -0.000   0.000  -0.003
   27       -0.002  -0.000   0.000  -0.002
   28       -0.003  -0.000   0.000  -0.003
   29       -0.001   0.000   0.000  -0.001
   30       -0.001  -0.000   0.000  -0.001
   31       -0.002   0.000   0.000  -0.001
   32       -0.002  -0.001  -0.000  -0.003
   33       -0.003  -0.000   0.000  -0.003
   34       -0.001   0.000   0.000  -0.001
   35       -0.001  -0.000   0.000  -0.001
   36       -0.003  -0.000   0.000  -0.003
   37       -0.003  -0.000   0.000  -0.003
   38       -0.002  -0.000   0.000  -0.002
   39       -0.003  -0.000   0.000  -0.003
   40       -0.003  -0.000   0.000  -0.003
   41       -0.002  -0.000   0.000  -0.002
   42       -0.003  -0.000   0.000  -0.003
   43       -0.001   0.000   0.000  -0.001
   44       -0.001  -0.000   0.000  -0.001
   45       -0.003  -0.000   0.000  -0.003
   46       -0.001   0.000   0.000  -0.001
   47       -0.001  -0.000   0.000  -0.001
   48       -0.003  -0.000   0.000  -0.003
   49       -0.003  -0.000   0.000  -0.003
   50       -0.002  -0.000   0.000  -0.002
   51       -0.003  -0.000   0.000  -0.003
   52       -0.003  -0.000   0.000  -0.003
   53       -0.002  -0.000   0.000  -0.002
   54       -0.003  -0.000   0.000  -0.003
   55       -0.003  -0.000   0.000  -0.003
   56        0.000   0.000   0.000   0.001
   57       -0.003  -0.000   0.000  -0.003
   58       -0.003  -0.000   0.000  -0.003
   59        0.000   0.000   0.000   0.001
   60       -0.003  -0.000   0.000  -0.003
   61       -0.003  -0.000   0.000  -0.003
   62        0.000   0.000   0.000   0.001
   63       -0.003  -0.000   0.000  -0.003
   64       -0.003  -0.000   0.000  -0.003
   65       -0.002  -0.000   0.000  -0.002
   66       -0.003  -0.000   0.000  -0.003
   67       -0.003  -0.000   0.000  -0.003
   68        0.000   0.000   0.000   0.001
   69       -0.003  -0.000   0.000  -0.003
   70       -0.004  -0.000   0.000  -0.003
   71       -0.002   0.000   0.000  -0.001
   72       -0.003  -0.000   0.000  -0.003
   73       -0.003  -0.000   0.000  -0.003
   74        0.000   0.000   0.000   0.001
   75       -0.003  -0.000   0.000  -0.003
   76       -0.001   0.001   0.001   0.001
   77        0.005   0.006   0.006   0.017
   78       -0.003  -0.000   0.000  -0.003
   79       -0.001   0.001   0.001   0.001
   80        0.005   0.006   0.006   0.017
   81       -0.003  -0.000   0.000  -0.003
   82       -0.003  -0.000   0.000  -0.003
   83        0.000   0.000   0.000   0.001
   84       -0.003  -0.000   0.000  -0.003
   85       -0.003  -0.000   0.000  -0.003
   86       -0.002  -0.000   0.000  -0.002
   87       -0.003  -0.000   0.000  -0.003
   88       -0.003  -0.000   0.000  -0.003
   89       -0.002  -0.000   0.000  -0.002
   90       -0.003  -0.000   0.000  -0.003
   91       -0.001   0.001   0.001   0.001
   92        0.005   0.006   0.006   0.017
   93       -0.003  -0.000   0.000  -0.003
   94       -0.003  -0.000   0.000  -0.003
   95       -0.002  -0.000   0.000  -0.002
   96       -0.002   0.002   0.000  -0.001
   97       -0.001   0.001   0.000   0.000
   98       -0.002   0.001   0.000  -0.001
   99       -0.002   0.002   0.000  -0.001
  100       -0.001   0.001   0.000  -0.000
  101       -0.002   0.001   0.000  -0.000
  102       -0.002   0.002   0.000  -0.001
  103       -0.001   0.001   0.000   0.000
  104       -0.002   0.001   0.000  -0.001
  105       -0.002   0.002   0.000  -0.001
  106       -0.001   0.001   0.000  -0.000
  107       -0.002   0.001   0.000  -0.001
  108       -0.002   0.002   0.000  -0.001
  109       -0.001   0.001   0.000  -0.000
  110       -0.002   0.001   0.000  -0.001
  111       -0.002   0.002   0.000  -0.000
  112        0.001   0.009   0.000   0.010
  113       -0.001   0.001   0.000  -0.000
  114       -0.002   0.002   0.000  -0.000
  115        0.001   0.009   0.000   0.010
  116       -0.001   0.001   0.000  -0.000
  117       -0.002   0.002   0.000  -0.001
  118       -0.001   0.001   0.000  -0.000
  119       -0.002   0.001   0.000  -0.001
  120       -0.002   0.002   0.000  -0.001
  121       -0.001   0.001   0.000   0.000
  122       -0.002   0.001   0.000  -0.001
  123       -0.002   0.002   0.000  -0.000
  124        0.001   0.009   0.000   0.010
  125       -0.001   0.001   0.000  -0.000
  126       -0.000   0.003   0.000   0.003
  127       -0.002   0.001   0.000  -0.001
  128       -0.002   0.002   0.000  -0.000
  129        0.001   0.009   0.000   0.010
  130       -0.001   0.001   0.000  -0.000
  131       -0.002   0.002   0.000  -0.001
  132       -0.001   0.001   0.000  -0.000
  133       -0.002   0.001   0.000  -0.000
  134       -0.002   0.002   0.000  -0.001
  135       -0.001   0.001   0.000  -0.000
  136       -0.002   0.001   0.000  -0.000
  137       -0.002   0.002   0.000  -0.000
  138        0.001   0.009   0.000   0.010
  139       -0.001   0.001   0.000  -0.000
  140       -0.002   0.002   0.000  -0.000
  141        0.001   0.009   0.000   0.010
  142       -0.001   0.001   0.000  -0.000
  143       -0.002   0.002   0.000  -0.001
  144       -0.002   0.001   0.000  -0.000
  145       -0.002   0.001   0.000  -0.000
  146       -0.002   0.002   0.000  -0.001
  147       -0.002   0.001   0.000  -0.000
  148       -0.002   0.001   0.000  -0.000
  149       -0.002   0.002   0.000  -0.001
  150       -0.002   0.001   0.000  -0.001
  151       -0.001   0.001   0.000  -0.000
  152       -0.002   0.002   0.000  -0.001
  153       -0.002   0.001   0.000  -0.001
  154       -0.001   0.001   0.000  -0.000
  155       -0.002   0.002   0.000  -0.001
  156       -0.002   0.001   0.000  -0.001
  157       -0.001   0.001   0.000  -0.000
  158       -0.002   0.002   0.000  -0.000
  159       -0.001   0.001   0.000  -0.000
  160       -0.001   0.000   0.000  -0.001
  161       -0.002   0.002   0.000  -0.001
  162       -0.002   0.001   0.000  -0.001
  163       -0.001   0.001   0.000  -0.000
  164       -0.002   0.002   0.000  -0.001
  165       -0.002   0.001   0.000  -0.001
  166       -0.002   0.001   0.000  -0.000
  167       -0.002   0.002   0.000  -0.001
  168       -0.002   0.001   0.000  -0.001
  169       -0.001   0.001   0.000  -0.000
  170       -0.002   0.002   0.000  -0.000
  171       -0.001  -0.008   0.000  -0.008
  172        0.001   0.004   0.000   0.005
  173       -0.002   0.002   0.000  -0.000
  174       -0.001  -0.008   0.000  -0.008
  175        0.001   0.004   0.000   0.005
  176       -0.002   0.002   0.000  -0.001
  177       -0.002   0.001   0.000  -0.001
  178       -0.001   0.001   0.000  -0.000
  179       -0.002   0.002   0.000  -0.001
  180       -0.002   0.001   0.000  -0.000
  181       -0.002   0.001   0.000  -0.000
  182       -0.002   0.002   0.000  -0.000
  183       -0.001   0.001   0.000  -0.000
  184       -0.001   0.000   0.000  -0.001
  185       -0.002   0.002   0.000  -0.000
  186       -0.001  -0.008   0.000  -0.008
  187        0.001   0.004   0.000   0.005
  188       -0.002   0.002   0.000  -0.000
  189       -0.001   0.001   0.000  -0.000
  190       -0.001   0.000   0.000  -0.001
  191        0.058   0.030   2.059   2.147
--------------------------------------------------
tot         -0.278   0.195   2.099   2.017
 

 total amount of memory used by VASP MPI-rank0   143442. kBytes
=======================================================================

   base      :      30000. kBytes
   nonlr-proj:       8605. kBytes
   fftplans  :       2267. kBytes
   grid      :       5113. kBytes
   one-center:        373. kBytes
   HF        :        129. kBytes
   wavefun   :       7416. kBytes
   fock_wrk  :      89539. kBytes
 
  
  
 General timing and accounting informations for this job:
 ========================================================
  
                  Total CPU time used (sec):     4273.095
                            User time (sec):     4257.543
                          System time (sec):       15.552
                         Elapsed time (sec):     4357.640
  
                   Maximum memory used (kb):      702268.
                   Average memory used (kb):          N/A
  
                          Minor page faults:      1476587
                          Major page faults:         1465
                 Voluntary context switches:        17012
