
     Program PWSCF v.7.2 starts on 18Jan2025 at 20:21:25 

     This program is part of the open-source Quantum ESPRESSO suite
     for quantum simulation of materials; please cite
         "P. Giannozzi et al., J. Phys.:Condens. Matter 21 395502 (2009);
         "P. Giannozzi et al., J. Phys.:Condens. Matter 29 465901 (2017);
         "P. Giannozzi et al., J. Chem. Phys. 152 154105 (2020);
          URL http://www.quantum-espresso.org", 
     in publications or presentations arising from this work. More details at
     http://www.quantum-espresso.org/quote

     Parallel version (MPI), running on    64 processors

     MPI processes distributed on     8 nodes
     186836 MiB available memory on the printing compute node when the environment starts
 
     Reading input from nscf.in
Warning: card &IONS ignored
Warning: card / ignored
Warning: card &CELL ignored
Warning: card / ignored

     Current dimensions of program PWSCF are:
     Max number of different atomic species (ntypx) = 10
     Max number of k-points (npk) =  40000
     Max angular momentum in pseudopotentials (lmaxx) =  4

     Atomic positions and unit cell read from directory:
     temp/pwscf.save/
     Atomic positions from file used, from input discarded
 

     IMPORTANT: XC functional enforced from input :
     Exchange-correlation= HSE
                           (   1   4  12   4   0   0   0)
     EXX-fraction              =        0.25
     Any further DFT definition will be discarded
     Please, verify this is what you really want

     EXX fraction changed:   0.38

     gamma-point specific algorithms are used
 
     band groups division:  nbgrp     =       4
     R & G space division:  proc/nbgrp/npool/nimage =      16
     Subspace diagonalization in iterative solution of the eigenvalue problem:
     a serial algorithm will be used

     EXX: q-point mesh:     1    1    1
     EXX: grid of k+q points same as grid of k-points
 
     Parallelization info
     --------------------
     sticks:   dense  smooth     PW     G-vecs:    dense   smooth      PW
     Min         828     828    206                93060    93060   11626
     Max         831     831    208                93070    93070   11636
     Sum       13273   13273   3319              1489031  1489031  186077
 
     Using Slab Decomposition
 


     bravais-lattice index     =            0
     lattice parameter (alat)  =      24.5558  a.u.
     unit-cell volume          =   15406.2245 (a.u.)^3
     number of atoms/cell      =          191
     number of atomic types    =            3
     number of electrons       =      2482.00
     number of Kohn-Sham states=         3000
     kinetic-energy cutoff     =      80.0000  Ry
     charge density cutoff     =     320.0000  Ry
     cutoff for Fock operator  =     160.0000  Ry
     Exchange-correlation= HSE
                           (   1   4  12   4   0   0   0)
     EXX-fraction              =        0.38

     celldm(1)=  24.555771  celldm(2)=   0.000000  celldm(3)=   0.000000
     celldm(4)=   0.000000  celldm(5)=   0.000000  celldm(6)=   0.000000

     crystal axes: (cart. coord. in units of alat)
               a(1) = (   1.000000   0.000000   0.000000 )  
               a(2) = (  -0.500000   0.866025   0.000000 )  
               a(3) = (   0.000000   0.000000   1.201448 )  

     reciprocal axes: (cart. coord. in units 2 pi/alat)
               b(1) = (  1.000000  0.577350  0.000000 )  
               b(2) = (  0.000000  1.154701  0.000000 )  
               b(3) = (  0.000000  0.000000  0.832329 )  


     PseudoPot. # 1 for Zn read from file:
     ~/Pseudopotential/pseudo-ONCV-proj/Zn_ONCV_PBE-1.0.upf
     MD5 check sum: Not computed, couldn't open file
     Pseudo is Norm-conserving, Zval = 20.0
     Generated using ONCVPSP code by D. R. Hamann
     Using radial grid of 1326 points,  6 beta functions with: 
                l(1) =   0
                l(2) =   0
                l(3) =   1
                l(4) =   1
                l(5) =   2
                l(6) =   2

     PseudoPot. # 2 for O  read from file:
     ~/Pseudopotential/pseudo-ONCV-proj/O_ONCV_PBE-1.0.upf
     MD5 check sum: Not computed, couldn't open file
     Pseudo is Norm-conserving, Zval =  6.0
     Generated using ONCVPSP code by D. R. Hamann
     Using radial grid of  936 points,  4 beta functions with: 
                l(1) =   0
                l(2) =   0
                l(3) =   1
                l(4) =   1

     PseudoPot. # 3 for Mo read from file:
     ~/Pseudopotential/pseudo-ONCV-proj/Mo_ONCV_PBE-1.0.upf
     MD5 check sum: Not computed, couldn't open file
     Pseudo is Norm-conserving, Zval = 14.0
     Generated using ONCVPSP code by D. R. Hamann
     Using radial grid of 1526 points,  6 beta functions with: 
                l(1) =   0
                l(2) =   0
                l(3) =   1
                l(4) =   1
                l(5) =   2
                l(6) =   2

     atomic species   valence    mass     pseudopotential
        Zn            20.00    65.39000     Zn( 1.00)
        O              6.00    15.99940     O ( 1.00)
        Mo            14.00    95.94000     Mo( 1.00)

     Starting magnetic structure 
     atomic species   magnetization
        Zn           0.500
        O            0.000
        Mo           0.000

     No symmetry found


                                    s                        frac. trans.

      isym =  1     identity                                     

 cryst.   s( 1) = (     1          0          0      )
                  (     0          1          0      )
                  (     0          0          1      )

 cart.    s( 1) = (  1.0000000  0.0000000  0.0000000 )
                  (  0.0000000  1.0000000  0.0000000 )
                  (  0.0000000  0.0000000  1.0000000 )


   Cartesian axes

     site n.     atom                  positions (alat units)
         1           Zn  tau(   1) = (   0.1248840   0.0722357   0.1987950  )
         2           Zn  tau(   2) = (   0.1250890   0.0721174   0.6004059  )
         3           Zn  tau(   3) = (   0.1247781   0.0722969   1.0016715  )
         4           Zn  tau(   4) = (  -0.0004526   0.2884138   0.1989904  )
         5           Zn  tau(   5) = (  -0.0011980   0.2879835   0.6001881  )
         6           Zn  tau(   6) = (  -0.0002568   0.2885269   1.0016658  )
         7           Zn  tau(   7) = (  -0.1250000   0.5050475   0.1987950  )
         8           Zn  tau(   8) = (  -0.1250000   0.5052841   0.6004059  )
         9           Zn  tau(   9) = (  -0.1250000   0.5049252   1.0016715  )
        10           Zn  tau(  10) = (  -0.2497729   0.7218189   0.1987837  )
        11           Zn  tau(  11) = (  -0.2490655   0.7222273   0.6009698  )
        12           Zn  tau(  12) = (  -0.2497932   0.7218071   1.0018110  )
        13           Zn  tau(  13) = (   0.3750000   0.0719066   0.1987837  )
        14           Zn  tau(  14) = (   0.3750000   0.0710897   0.6009698  )
        15           Zn  tau(  15) = (   0.3750000   0.0719301   1.0018110  )
        16           Zn  tau(  16) = (   0.2489614   0.2878847   0.1992100  )
        17           Zn  tau(  17) = (   0.2435369   0.2832825   0.6032470  )
        18           Zn  tau(  18) = (   0.2506753   0.2891094   1.0013360  )
        19           Zn  tau(  19) = (   0.1237962   0.5046772   0.1992100  )
        20           Zn  tau(  20) = (   0.1170983   0.5022805   0.6032470  )
        21           Zn  tau(  21) = (   0.1257137   0.5055491   1.0013360  )
        22           Zn  tau(  22) = (  -0.0002270   0.7218189   0.1987837  )
        23           Zn  tau(  23) = (  -0.0009344   0.7222273   0.6009698  )
        24           Zn  tau(  24) = (  -0.0002066   0.7218071   1.0018110  )
        25           Zn  tau(  25) = (   0.6251160   0.0722357   0.1987950  )
        26           Zn  tau(  26) = (   0.6249111   0.0721174   0.6004059  )
        27           Zn  tau(  27) = (   0.6252220   0.0722969   1.0016715  )
        28           Zn  tau(  28) = (   0.5010386   0.2878847   0.1992100  )
        29           Zn  tau(  29) = (   0.5064631   0.2832825   0.6032470  )
        30           Zn  tau(  30) = (   0.4993248   0.2891094   1.0013360  )
        31           Zn  tau(  31) = (   0.3750001   0.5051814   0.2004931  )
        32           Zn  tau(  32) = (   0.3750001   0.5051814   1.0031665  )
        33           Zn  tau(  33) = (   0.2498348   0.7229824   0.1992100  )
        34           Zn  tau(  34) = (   0.2485614   0.7299813   0.6032470  )
        35           Zn  tau(  35) = (   0.2500385   0.7208859   1.0013360  )
        36           Zn  tau(  36) = (   0.8750000   0.0726914   0.1989904  )
        37           Zn  tau(  37) = (   0.8750000   0.0735521   0.6001881  )
        38           Zn  tau(  38) = (   0.8750000   0.0724653   1.0016658  )
        39           Zn  tau(  39) = (   0.7504526   0.2884138   0.1989904  )
        40           Zn  tau(  40) = (   0.7511980   0.2879835   0.6001881  )
        41           Zn  tau(  41) = (   0.7502568   0.2885269   1.0016658  )
        42           Zn  tau(  42) = (   0.6262039   0.5046772   0.1992100  )
        43           Zn  tau(  43) = (   0.6329018   0.5022805   0.6032470  )
        44           Zn  tau(  44) = (   0.6242864   0.5055491   1.0013360  )
        45           Zn  tau(  45) = (   0.5001653   0.7229824   0.1992100  )
        46           Zn  tau(  46) = (   0.5014387   0.7299813   0.6032470  )
        47           Zn  tau(  47) = (   0.4999616   0.7208859   1.0013360  )
        48           Zn  tau(  48) = (  -0.0000245   0.1443517   1.2011361  )
        49           Zn  tau(  49) = (  -0.0000684   0.1443771   0.3990909  )
        50           Zn  tau(  50) = (  -0.0001009   0.1443958   0.8011350  )
        51           Zn  tau(  51) = (  -0.1250000   0.3608156   1.2011361  )
        52           Zn  tau(  52) = (  -0.1250000   0.3607649   0.3990909  )
        53           Zn  tau(  53) = (  -0.1250000   0.3607274   0.8011350  )
        54           Zn  tau(  54) = (  -0.2500072   0.5773395   1.2010265  )
        55           Zn  tau(  55) = (  -0.2486634   0.5780181   0.3986418  )
        56           Zn  tau(  56) = (  -0.2494406   0.5778324   0.8024030  )
        57           Zn  tau(  57) = (  -0.3750129   0.7938557   1.2010265  )
        58           Zn  tau(  58) = (  -0.3737533   0.7946802   0.3986418  )
        59           Zn  tau(  59) = (  -0.3743028   0.7940999   0.8024030  )
        60           Zn  tau(  60) = (   0.2499943   0.1443492   1.2010265  )
        61           Zn  tau(  61) = (   0.2499101   0.1428461   0.3986418  )
        62           Zn  tau(  62) = (   0.2501379   0.1436121   0.8024030  )
        63           Zn  tau(  63) = (   0.1250071   0.3608480   1.2010352  )
        64           Zn  tau(  64) = (   0.1237059   0.3600968   0.3990543  )
        65           Zn  tau(  65) = (   0.1241012   0.3603250   0.8032345  )
        66           Zn  tau(  66) = (   0.0000073   0.5773395   1.2010265  )
        67           Zn  tau(  67) = (  -0.0013366   0.5780181   0.3986418  )
        68           Zn  tau(  68) = (  -0.0005593   0.5778324   0.8024030  )
        69           Zn  tau(  69) = (  -0.1250000   0.7938566   1.2010657  )
        70           Zn  tau(  70) = (  -0.1250000   0.7938566   0.3990225  )
        71           Zn  tau(  71) = (  -0.1250000   0.7938566   0.8013708  )
        72           Zn  tau(  72) = (   0.5000057   0.1443492   1.2010265  )
        73           Zn  tau(  73) = (   0.5000899   0.1428461   0.3986418  )
        74           Zn  tau(  74) = (   0.4998621   0.1436121   0.8024030  )
        75           Zn  tau(  75) = (   0.3750000   0.3607172   0.0016607  )
        76           Zn  tau(  76) = (   0.3750000   0.3579017   0.3927764  )
        77           Zn  tau(  77) = (   0.3750000   0.3630743   0.7984601  )
        78           Zn  tau(  78) = (   0.2498902   0.5774136   0.0016607  )
        79           Zn  tau(  79) = (   0.2474519   0.5788214   0.3927764  )
        80           Zn  tau(  80) = (   0.2519316   0.5762350   0.7984601  )
        81           Zn  tau(  81) = (   0.1250129   0.7938557   1.2010265  )
        82           Zn  tau(  82) = (   0.1237533   0.7946802   0.3986418  )
        83           Zn  tau(  83) = (   0.1243028   0.7940999   0.8024030  )
        84           Zn  tau(  84) = (   0.7500245   0.1443517   1.2011361  )
        85           Zn  tau(  85) = (   0.7500684   0.1443771   0.3990909  )
        86           Zn  tau(  86) = (   0.7501009   0.1443958   0.8011350  )
        87           Zn  tau(  87) = (   0.6249929   0.3608480   1.2010352  )
        88           Zn  tau(  88) = (   0.6262941   0.3600968   0.3990543  )
        89           Zn  tau(  89) = (   0.6258988   0.3603250   0.8032345  )
        90           Zn  tau(  90) = (   0.5001097   0.5774136   0.0016607  )
        91           Zn  tau(  91) = (   0.5025481   0.5788214   0.3927764  )
        92           Zn  tau(  92) = (   0.4980684   0.5762350   0.7984601  )
        93           Zn  tau(  93) = (   0.3750000   0.7938484   1.2010352  )
        94           Zn  tau(  94) = (   0.3750000   0.7953508   0.3990543  )
        95           Zn  tau(  95) = (   0.3750000   0.7948944   0.8032345  )
        96           O   tau(  96) = (   0.1247958   0.0722867   0.3521688  )
        97           O   tau(  97) = (   0.1251920   0.0720579   0.7526373  )
        98           O   tau(  98) = (   0.1250104   0.0721628   1.1539232  )
        99           O   tau(  99) = (  -0.0001343   0.2885976   0.3523886  )
       100           O   tau( 100) = (   0.0004021   0.2889073   0.7523657  )
       101           O   tau( 101) = (   0.0001635   0.2887695   1.1539378  )
       102           O   tau( 102) = (  -0.1250000   0.5049456   0.3521688  )
       103           O   tau( 103) = (  -0.1250000   0.5054031   0.7526373  )
       104           O   tau( 104) = (  -0.1250000   0.5051935   1.1539232  )
       105           O   tau( 105) = (  -0.2499963   0.7216899   0.3521196  )
       106           O   tau( 106) = (  -0.2502929   0.7215186   0.7530099  )
       107           O   tau( 107) = (  -0.2500820   0.7216404   1.1539780  )
       108           O   tau( 108) = (   0.3750000   0.0721646   0.3521196  )
       109           O   tau( 109) = (   0.3750000   0.0725071   0.7530099  )
       110           O   tau( 110) = (   0.3750000   0.0722635   1.1539780  )
       111           O   tau( 111) = (   0.2497225   0.2885482   0.3539584  )
       112           O   tau( 112) = (   0.2506663   0.2899646   0.7533174  )
       113           O   tau( 113) = (   0.2507022   0.2892056   1.1537912  )
       114           O   tau( 114) = (   0.1247514   0.5050046   0.3539584  )
       115           O   tau( 115) = (   0.1264499   0.5051137   0.7533174  )
       116           O   tau( 116) = (   0.1258105   0.5055243   1.1537912  )
       117           O   tau( 117) = (  -0.0000036   0.7216899   0.3521196  )
       118           O   tau( 118) = (   0.0002930   0.7215186   0.7530099  )
       119           O   tau( 119) = (   0.0000821   0.7216404   1.1539780  )
       120           O   tau( 120) = (   0.6252042   0.0722867   0.3521688  )
       121           O   tau( 121) = (   0.6248080   0.0720579   0.7526373  )
       122           O   tau( 122) = (   0.6249896   0.0721628   1.1539232  )
       123           O   tau( 123) = (   0.5002775   0.2885482   0.3539584  )
       124           O   tau( 124) = (   0.4993338   0.2899646   0.7533174  )
       125           O   tau( 125) = (   0.4992979   0.2892056   1.1537912  )
       126           O   tau( 126) = (   0.3750001   0.5051814   0.3594347  )
       127           O   tau( 127) = (   0.3750001   0.5051814   1.1548646  )
       128           O   tau( 128) = (   0.2500289   0.7219915   0.3539584  )
       129           O   tau( 129) = (   0.2507837   0.7204660   0.7533174  )
       130           O   tau( 130) = (   0.2501084   0.7208144   1.1537912  )
       131           O   tau( 131) = (   0.8750000   0.0723239   0.3523886  )
       132           O   tau( 132) = (   0.8750000   0.0717045   0.7523657  )
       133           O   tau( 133) = (   0.8750000   0.0719800   1.1539378  )
       134           O   tau( 134) = (   0.7501343   0.2885976   0.3523886  )
       135           O   tau( 135) = (   0.7495979   0.2889073   0.7523657  )
       136           O   tau( 136) = (   0.7498365   0.2887695   1.1539378  )
       137           O   tau( 137) = (   0.6252487   0.5050046   0.3539584  )
       138           O   tau( 138) = (   0.6235502   0.5051137   0.7533174  )
       139           O   tau( 139) = (   0.6241896   0.5055243   1.1537912  )
       140           O   tau( 140) = (   0.4999713   0.7219915   0.3539584  )
       141           O   tau( 141) = (   0.4992164   0.7204660   0.7533174  )
       142           O   tau( 142) = (   0.4998917   0.7208144   1.1537912  )
       143           O   tau( 143) = (   0.0000260   0.1443226   0.1524675  )
       144           O   tau( 144) = (   0.0004524   0.1440764   0.5523136  )
       145           O   tau( 145) = (  -0.0000083   0.1443424   0.9531247  )
       146           O   tau( 146) = (  -0.1250000   0.3608739   0.1524675  )
       147           O   tau( 147) = (  -0.1250000   0.3613663   0.5523136  )
       148           O   tau( 148) = (  -0.1250000   0.3608343   0.9531247  )
       149           O   tau( 149) = (  -0.2500961   0.5773104   0.1525949  )
       150           O   tau( 150) = (  -0.2500544   0.5780127   0.5520186  )
       151           O   tau( 151) = (  -0.2504230   0.5772322   0.9538437  )
       152           O   tau( 152) = (  -0.3750825   0.7937933   0.1525949  )
       153           O   tau( 153) = (  -0.3744535   0.7934782   0.5520186  )
       154           O   tau( 154) = (  -0.3753137   0.7935493   0.9538437  )
       155           O   tau( 155) = (   0.2500135   0.1444407   0.1525949  )
       156           O   tau( 156) = (   0.2506009   0.1440535   0.5520186  )
       157           O   tau( 157) = (   0.2501093   0.1447629   0.9538437  )
       158           O   tau( 158) = (   0.1250035   0.3608459   0.1528834  )
       159           O   tau( 159) = (   0.1257103   0.3612540   0.5526041  )
       160           O   tau( 160) = (   0.1252805   0.3610058   0.9542483  )
       161           O   tau( 161) = (   0.0000961   0.5773104   0.1525949  )
       162           O   tau( 162) = (   0.0000545   0.5780127   0.5520186  )
       163           O   tau( 163) = (   0.0004230   0.5772322   0.9538437  )
       164           O   tau( 164) = (  -0.1250000   0.7938566   0.1523509  )
       165           O   tau( 165) = (  -0.1250000   0.7938566   0.5521011  )
       166           O   tau( 166) = (  -0.1250000   0.7938566   0.9533347  )
       167           O   tau( 167) = (   0.4999865   0.1444407   0.1525949  )
       168           O   tau( 168) = (   0.4993991   0.1440535   0.5520186  )
       169           O   tau( 169) = (   0.4998907   0.1447629   0.9538437  )
       170           O   tau( 170) = (   0.3750000   0.3611225   0.1556514  )
       171           O   tau( 171) = (   0.3750000   0.3650827   0.5588865  )
       172           O   tau( 172) = (   0.3750000   0.3627542   0.9492347  )
       173           O   tau( 173) = (   0.2502413   0.5772110   0.1556514  )
       174           O   tau( 174) = (   0.2536709   0.5752309   0.5588865  )
       175           O   tau( 175) = (   0.2516544   0.5763951   0.9492347  )
       176           O   tau( 176) = (   0.1250826   0.7937933   0.1525949  )
       177           O   tau( 177) = (   0.1244535   0.7934782   0.5520186  )
       178           O   tau( 178) = (   0.1253137   0.7935493   0.9538437  )
       179           O   tau( 179) = (   0.7499740   0.1443226   0.1524675  )
       180           O   tau( 180) = (   0.7495476   0.1440764   0.5523136  )
       181           O   tau( 181) = (   0.7500083   0.1443424   0.9531247  )
       182           O   tau( 182) = (   0.6249965   0.3608459   0.1528834  )
       183           O   tau( 183) = (   0.6242897   0.3612540   0.5526041  )
       184           O   tau( 184) = (   0.6247195   0.3610058   0.9542483  )
       185           O   tau( 185) = (   0.4997587   0.5772110   0.1556514  )
       186           O   tau( 186) = (   0.4963291   0.5752309   0.5588865  )
       187           O   tau( 187) = (   0.4983456   0.5763951   0.9492347  )
       188           O   tau( 188) = (   0.3750000   0.7938525   0.1528834  )
       189           O   tau( 189) = (   0.3750000   0.7930364   0.5526041  )
       190           O   tau( 190) = (   0.3750000   0.7935328   0.9542483  )
       191           Mo  tau( 191) = (   0.3750001   0.5051814   0.5974195  )

   Crystallographic axes

     site n.     atom                  positions (cryst. coord.)
         1           Zn  tau(   1) = (  0.1665894  0.0834106  0.1654629  )
         2           Zn  tau(   2) = (  0.1667260  0.0832740  0.4997353  )
         3           Zn  tau(   3) = (  0.1665187  0.0834813  0.8337203  )
         4           Zn  tau(   4) = (  0.1660632  0.3330316  0.1656255  )
         5           Zn  tau(   5) = (  0.1650694  0.3325347  0.4995540  )
         6           Zn  tau(   6) = (  0.1663243  0.3331621  0.8337156  )
         7           Zn  tau(   7) = (  0.1665894  0.5831787  0.1654629  )
         8           Zn  tau(   8) = (  0.1667260  0.5834519  0.4997353  )
         9           Zn  tau(   9) = (  0.1665187  0.5830374  0.8337203  )
        10           Zn  tau(  10) = (  0.1669694  0.8334847  0.1654534  )
        11           Zn  tau(  11) = (  0.1679126  0.8339563  0.5002046  )
        12           Zn  tau(  12) = (  0.1669423  0.8334711  0.8338365  )
        13           Zn  tau(  13) = (  0.4165153  0.0830306  0.1654534  )
        14           Zn  tau(  14) = (  0.4160437  0.0820874  0.5002046  )
        15           Zn  tau(  15) = (  0.4165289  0.0830577  0.8338365  )
        16           Zn  tau(  16) = (  0.4151717  0.3324206  0.1658083  )
        17           Zn  tau(  17) = (  0.4070902  0.3271065  0.5021000  )
        18           Zn  tau(  18) = (  0.4175926  0.3338348  0.8334411  )
        19           Zn  tau(  19) = (  0.4151717  0.5827510  0.1658083  )
        20           Zn  tau(  20) = (  0.4070902  0.5799837  0.5021000  )
        21           Zn  tau(  21) = (  0.4175926  0.5837578  0.8334411  )
        22           Zn  tau(  22) = (  0.4165153  0.8334847  0.1654534  )
        23           Zn  tau(  23) = (  0.4160437  0.8339563  0.5002046  )
        24           Zn  tau(  24) = (  0.4165289  0.8334711  0.8338365  )
        25           Zn  tau(  25) = (  0.6668213  0.0834106  0.1654629  )
        26           Zn  tau(  26) = (  0.6665481  0.0832740  0.4997353  )
        27           Zn  tau(  27) = (  0.6669626  0.0834813  0.8337203  )
        28           Zn  tau(  28) = (  0.6672490  0.3324206  0.1658083  )
        29           Zn  tau(  29) = (  0.6700163  0.3271065  0.5021000  )
        30           Zn  tau(  30) = (  0.6662422  0.3338348  0.8334411  )
        31           Zn  tau(  31) = (  0.6666667  0.5833333  0.1668763  )
        32           Zn  tau(  32) = (  0.6666667  0.5833333  0.8349646  )
        33           Zn  tau(  33) = (  0.6672490  0.8348283  0.1658083  )
        34           Zn  tau(  34) = (  0.6700163  0.8429098  0.5021000  )
        35           Zn  tau(  35) = (  0.6662422  0.8324074  0.8334411  )
        36           Zn  tau(  36) = (  0.9169684  0.0839368  0.1656255  )
        37           Zn  tau(  37) = (  0.9174653  0.0849307  0.4995540  )
        38           Zn  tau(  38) = (  0.9168379  0.0836757  0.8337156  )
        39           Zn  tau(  39) = (  0.9169684  0.3330316  0.1656255  )
        40           Zn  tau(  40) = (  0.9174653  0.3325347  0.4995540  )
        41           Zn  tau(  41) = (  0.9168379  0.3331621  0.8337156  )
        42           Zn  tau(  42) = (  0.9175794  0.5827510  0.1658083  )
        43           Zn  tau(  43) = (  0.9228936  0.5799837  0.5021000  )
        44           Zn  tau(  44) = (  0.9161653  0.5837578  0.8334411  )
        45           Zn  tau(  45) = (  0.9175794  0.8348283  0.1658083  )
        46           Zn  tau(  46) = (  0.9228936  0.8429098  0.5021000  )
        47           Zn  tau(  47) = (  0.9161653  0.8324074  0.8334411  )
        48           Zn  tau(  48) = (  0.0833170  0.1666830  0.9997405  )
        49           Zn  tau(  49) = (  0.0832877  0.1667123  0.3321750  )
        50           Zn  tau(  50) = (  0.0832661  0.1667339  0.6668080  )
        51           Zn  tau(  51) = (  0.0833170  0.4166340  0.9997405  )
        52           Zn  tau(  52) = (  0.0832877  0.4165755  0.3321750  )
        53           Zn  tau(  53) = (  0.0832661  0.4165321  0.6668080  )
        54           Zn  tau(  54) = (  0.0833199  0.6666543  0.9996493  )
        55           Zn  tau(  55) = (  0.0850555  0.6674379  0.3318011  )
        56           Zn  tau(  56) = (  0.0841710  0.6672234  0.6678634  )
        57           Zn  tau(  57) = (  0.0833199  0.9166657  0.9996493  )
        58           Zn  tau(  58) = (  0.0850555  0.9176177  0.3318011  )
        59           Zn  tau(  59) = (  0.0841710  0.9169477  0.6678634  )
        60           Zn  tau(  60) = (  0.3333344  0.1666801  0.9996493  )
        61           Zn  tau(  61) = (  0.3323823  0.1649445  0.3318011  )
        62           Zn  tau(  62) = (  0.3330523  0.1658290  0.6678634  )
        63           Zn  tau(  63) = (  0.3333428  0.4166714  0.9996566  )
        64           Zn  tau(  64) = (  0.3316079  0.4158040  0.3321445  )
        65           Zn  tau(  65) = (  0.3321349  0.4160675  0.6685555  )
        66           Zn  tau(  66) = (  0.3333344  0.6666543  0.9996493  )
        67           Zn  tau(  67) = (  0.3323823  0.6674379  0.3318011  )
        68           Zn  tau(  68) = (  0.3330523  0.6672234  0.6678634  )
        69           Zn  tau(  69) = (  0.3333333  0.9166667  0.9996819  )
        70           Zn  tau(  70) = (  0.3333333  0.9166667  0.3321181  )
        71           Zn  tau(  71) = (  0.3333333  0.9166667  0.6670043  )
        72           Zn  tau(  72) = (  0.5833457  0.1666801  0.9996493  )
        73           Zn  tau(  73) = (  0.5825621  0.1649445  0.3318011  )
        74           Zn  tau(  74) = (  0.5827766  0.1658290  0.6678634  )
        75           Zn  tau(  75) = (  0.5832601  0.4165204  0.0013823  )
        76           Zn  tau(  76) = (  0.5816346  0.4132693  0.3269192  )
        77           Zn  tau(  77) = (  0.5846211  0.4192422  0.6645816  )
        78           Zn  tau(  78) = (  0.5832601  0.6667399  0.0013823  )
        79           Zn  tau(  79) = (  0.5816346  0.6683654  0.3269192  )
        80           Zn  tau(  80) = (  0.5846211  0.6653789  0.6645816  )
        81           Zn  tau(  81) = (  0.5833457  0.9166657  0.9996493  )
        82           Zn  tau(  82) = (  0.5825621  0.9176177  0.3318011  )
        83           Zn  tau(  83) = (  0.5827766  0.9169477  0.6678634  )
        84           Zn  tau(  84) = (  0.8333660  0.1666830  0.9997405  )
        85           Zn  tau(  85) = (  0.8334245  0.1667123  0.3321750  )
        86           Zn  tau(  86) = (  0.8334679  0.1667339  0.6668080  )
        87           Zn  tau(  87) = (  0.8333286  0.4166714  0.9996566  )
        88           Zn  tau(  88) = (  0.8341960  0.4158040  0.3321445  )
        89           Zn  tau(  89) = (  0.8339325  0.4160675  0.6685555  )
        90           Zn  tau(  90) = (  0.8334796  0.6667399  0.0013823  )
        91           Zn  tau(  91) = (  0.8367307  0.6683654  0.3269192  )
        92           Zn  tau(  92) = (  0.8307578  0.6653789  0.6645816  )
        93           Zn  tau(  93) = (  0.8333286  0.9166573  0.9996566  )
        94           Zn  tau(  94) = (  0.8341960  0.9183921  0.3321445  )
        95           Zn  tau(  95) = (  0.8339325  0.9178651  0.6685555  )
        96           O   tau(  96) = (  0.1665305  0.0834695  0.2931203  )
        97           O   tau(  97) = (  0.1667947  0.0832053  0.6264419  )
        98           O   tau(  98) = (  0.1666736  0.0833264  0.9604439  )
        99           O   tau(  99) = (  0.1664876  0.3332438  0.2933033  )
       100           O   tau( 100) = (  0.1672028  0.3336014  0.6262158  )
       101           O   tau( 101) = (  0.1668847  0.3334424  0.9604560  )
       102           O   tau( 102) = (  0.1665305  0.5830610  0.2931203  )
       103           O   tau( 103) = (  0.1667947  0.5835893  0.6264419  )
       104           O   tau( 104) = (  0.1666736  0.5833472  0.9604439  )
       105           O   tau( 105) = (  0.1666715  0.8333357  0.2930794  )
       106           O   tau( 106) = (  0.1662761  0.8331380  0.6267521  )
       107           O   tau( 107) = (  0.1665573  0.8332786  0.9604895  )
       108           O   tau( 108) = (  0.4166643  0.0833285  0.2930794  )
       109           O   tau( 109) = (  0.4168620  0.0837239  0.6267521  )
       110           O   tau( 110) = (  0.4167214  0.0834427  0.9604895  )
       111           O   tau( 111) = (  0.4163159  0.3331868  0.2946099  )
       112           O   tau( 112) = (  0.4180774  0.3348223  0.6270080  )
       113           O   tau( 113) = (  0.4176751  0.3339459  0.9603340  )
       114           O   tau( 114) = (  0.4163159  0.5831291  0.2946099  )
       115           O   tau( 115) = (  0.4180774  0.5832551  0.6270080  )
       116           O   tau( 116) = (  0.4176751  0.5837292  0.9603340  )
       117           O   tau( 117) = (  0.4166643  0.8333357  0.2930794  )
       118           O   tau( 118) = (  0.4168620  0.8331380  0.6267521  )
       119           O   tau( 119) = (  0.4167214  0.8332786  0.9604895  )
       120           O   tau( 120) = (  0.6669390  0.0834695  0.2931203  )
       121           O   tau( 121) = (  0.6664107  0.0832053  0.6264419  )
       122           O   tau( 122) = (  0.6666528  0.0833264  0.9604439  )
       123           O   tau( 123) = (  0.6668709  0.3331868  0.2946099  )
       124           O   tau( 124) = (  0.6667449  0.3348223  0.6270080  )
       125           O   tau( 125) = (  0.6662708  0.3339459  0.9603340  )
       126           O   tau( 126) = (  0.6666667  0.5833333  0.2991679  )
       127           O   tau( 127) = (  0.6666667  0.5833333  0.9612274  )
       128           O   tau( 128) = (  0.6668709  0.8336841  0.2946099  )
       129           O   tau( 129) = (  0.6667449  0.8319226  0.6270080  )
       130           O   tau( 130) = (  0.6662708  0.8323249  0.9603340  )
       131           O   tau( 131) = (  0.9167562  0.0835124  0.2933033  )
       132           O   tau( 132) = (  0.9163986  0.0827972  0.6262158  )
       133           O   tau( 133) = (  0.9165577  0.0831153  0.9604560  )
       134           O   tau( 134) = (  0.9167562  0.3332438  0.2933033  )
       135           O   tau( 135) = (  0.9163986  0.3336014  0.6262158  )
       136           O   tau( 136) = (  0.9165577  0.3334424  0.9604560  )
       137           O   tau( 137) = (  0.9168133  0.5831291  0.2946099  )
       138           O   tau( 138) = (  0.9151777  0.5832551  0.6270080  )
       139           O   tau( 139) = (  0.9160541  0.5837292  0.9603340  )
       140           O   tau( 140) = (  0.9168133  0.8336841  0.2946099  )
       141           O   tau( 141) = (  0.9151777  0.8319226  0.6270080  )
       142           O   tau( 142) = (  0.9160541  0.8323249  0.9603340  )
       143           O   tau( 143) = (  0.0833507  0.1666493  0.1269032  )
       144           O   tau( 144) = (  0.0836349  0.1663651  0.4597067  )
       145           O   tau( 145) = (  0.0833278  0.1666722  0.7933135  )
       146           O   tau( 146) = (  0.0833507  0.4167014  0.1269032  )
       147           O   tau( 147) = (  0.0836349  0.4172699  0.4597067  )
       148           O   tau( 148) = (  0.0833278  0.4166556  0.7933135  )
       149           O   tau( 149) = (  0.0832143  0.6666207  0.1270091  )
       150           O   tau( 150) = (  0.0836613  0.6674316  0.4594612  )
       151           O   tau( 151) = (  0.0828422  0.6665304  0.7939119  )
       152           O   tau( 152) = (  0.0832143  0.9165936  0.1270091  )
       153           O   tau( 153) = (  0.0836613  0.9162298  0.4594612  )
       154           O   tau( 154) = (  0.0828422  0.9163118  0.7939119  )
       155           O   tau( 155) = (  0.3334064  0.1667858  0.1270091  )
       156           O   tau( 156) = (  0.3337703  0.1663387  0.4594612  )
       157           O   tau( 157) = (  0.3336882  0.1671578  0.7939119  )
       158           O   tau( 158) = (  0.3333380  0.4166690  0.1272493  )
       159           O   tau( 159) = (  0.3342804  0.4171402  0.4599485  )
       160           O   tau( 160) = (  0.3337073  0.4168536  0.7942486  )
       161           O   tau( 161) = (  0.3334064  0.6666207  0.1270091  )
       162           O   tau( 162) = (  0.3337703  0.6674316  0.4594612  )
       163           O   tau( 163) = (  0.3336882  0.6665304  0.7939119  )
       164           O   tau( 164) = (  0.3333333  0.9166667  0.1268061  )
       165           O   tau( 165) = (  0.3333333  0.9166667  0.4595298  )
       166           O   tau( 166) = (  0.3333333  0.9166667  0.7934882  )
       167           O   tau( 167) = (  0.5833793  0.1667858  0.1270091  )
       168           O   tau( 168) = (  0.5825684  0.1663387  0.4594612  )
       169           O   tau( 169) = (  0.5834696  0.1671578  0.7939119  )
       170           O   tau( 170) = (  0.5834942  0.4169884  0.1295532  )
       171           O   tau( 171) = (  0.5857806  0.4215612  0.4651775  )
       172           O   tau( 172) = (  0.5844362  0.4188725  0.7900757  )
       173           O   tau( 173) = (  0.5834942  0.6665058  0.1295532  )
       174           O   tau( 174) = (  0.5857806  0.6642194  0.4651775  )
       175           O   tau( 175) = (  0.5844362  0.6655638  0.7900757  )
       176           O   tau( 176) = (  0.5833793  0.9165936  0.1270091  )
       177           O   tau( 177) = (  0.5825684  0.9162298  0.4594612  )
       178           O   tau( 178) = (  0.5834696  0.9163118  0.7939119  )
       179           O   tau( 179) = (  0.8332986  0.1666493  0.1269032  )
       180           O   tau( 180) = (  0.8327301  0.1663651  0.4597067  )
       181           O   tau( 181) = (  0.8333444  0.1666722  0.7933135  )
       182           O   tau( 182) = (  0.8333310  0.4166690  0.1272493  )
       183           O   tau( 183) = (  0.8328598  0.4171402  0.4599485  )
       184           O   tau( 184) = (  0.8331464  0.4168536  0.7942486  )
       185           O   tau( 185) = (  0.8330116  0.6665058  0.1295532  )
       186           O   tau( 186) = (  0.8284388  0.6642194  0.4651775  )
       187           O   tau( 187) = (  0.8311275  0.6655638  0.7900757  )
       188           O   tau( 188) = (  0.8333310  0.9166620  0.1272493  )
       189           O   tau( 189) = (  0.8328598  0.9157196  0.4599485  )
       190           O   tau( 190) = (  0.8331464  0.9162928  0.7942486  )
       191           Mo  tau( 191) = (  0.6666667  0.5833333  0.4972496  )

     number of k points=     1  Gaussian smearing, width (Ry)=  0.0001
                       cart. coord. in units 2pi/alat
        k(    1) = (   0.0000000   0.0000000   0.0000000), wk =   1.0000000

                       cryst. coord.
        k(    1) = (   0.0000000   0.0000000   0.0000000), wk =   1.0000000

     Dense  grid:   744516 G-vectors     FFT dimensions: ( 144, 144, 180)

     Dynamical RAM for                 wfc:     266.28 MB

     Dynamical RAM for     wfc (w. buffer):     266.28 MB

     Dynamical RAM for                 EXX:    1319.91 MB

     Dynamical RAM for           str. fact:       2.13 MB

     Dynamical RAM for           local pot:       0.00 MB

     Dynamical RAM for          nlocal pot:     220.84 MB

     Dynamical RAM for                qrad:       4.31 MB

     Dynamical RAM for          rho,v,vnew:      15.65 MB

     Dynamical RAM for           G-vectors:       3.02 MB

     Dynamical RAM for          h,s,v(r/c):     823.97 MB

     Dynamical RAM for          <psi|beta>:      56.95 MB

     Dynamical RAM for                 psi:     532.56 MB

     Dynamical RAM for                hpsi:     532.56 MB

     Dynamical RAM for      wfcinit/wfcrot:     738.58 MB

     Estimated static dynamical RAM per process >       1.80 GB

     Estimated max dynamical RAM per process >       3.70 GB

     Estimated total dynamical RAM >     237.03 GB
     EXX: initializing ACE and reading from file
     ACE potential read for     1260 bands
     ACE potential read for     1260 bands
     Starting ACE correctly read from file
     Generating pointlists ...
     new r_m :   0.0612 (alat units)  1.5028 (a.u.) for type    1
     new r_m :   0.0599 (alat units)  1.4718 (a.u.) for type    2
     new r_m :   0.0599 (alat units)  1.4718 (a.u.) for type    3

     The potential is recalculated from file :
     temp/pwscf.save/charge-density

     Starting wfcs are 1340 randomized atomic wfcs + 1660 random wfcs

     Band Structure Calculation
     Davidson diagonalization with overlap

     Computing kpt #:     1  of     2
     total cpu time spent up to now is     2009.5 secs

     Computing kpt #:     2  of     2
     total cpu time spent up to now is     3988.8 secs

     ethr =  1.00E-13,  avg # of iterations = 37.0

     total cpu time spent up to now is     3992.1 secs

     End of band structure calculation

 ------ SPIN UP ------------


          k = 0.0000 0.0000 0.0000 ( 93039 PWs)   bands (ev):

  -124.6359-124.6358-124.6358-124.4280-124.4280-124.4280-124.3922-124.3922
  -124.3922-124.3920-124.3920-124.3920-124.0426-123.9781-123.9781-123.9781
  -123.9779-123.9772-123.9772-123.9498-123.9491-123.9491-123.9442-123.9435
  -123.9435-123.9239-123.9239-123.9239-123.9236-123.9236-123.9235-123.9215
  -123.9215-123.9215-123.8972-123.8902-123.8902-123.8902-123.8898-123.8898
  -123.8897-123.8591-123.8591-123.8591-123.8586-123.8586-123.8586-123.8487
  -123.8440-123.8439-123.8439-123.8326-123.8325-123.8325-123.8321-123.8321
  -123.8321-123.8267-123.8198-123.8198-123.8198-123.8136-123.8135-123.8135
  -123.7542-123.7542-123.7542-123.7531-123.7528-123.7524-123.7524-123.7522
  -123.7522-123.7509-123.7502-123.7502-123.7478-123.7478-123.7478-123.7476
  -123.7476-123.7476-123.7465-123.7465-123.7465-123.7259-123.7258-123.7258
  -123.7254-123.7254-123.7253-123.7014-123.7014-123.7014-123.6970 -76.2015
   -76.2003 -76.2003 -76.1226 -76.1223 -76.1222 -76.1189 -76.1189 -76.1180
   -76.0101 -76.0100 -76.0100 -75.9717 -75.9717 -75.9715 -75.9713 -75.9710
   -75.9710 -75.9461 -75.9454 -75.9454 -75.9351 -75.9351 -75.9351 -75.9098
   -75.9095 -75.9095 -75.9089 -75.9089 -75.9086 -75.9052 -75.9051 -75.9051
   -75.9049 -75.9049 -75.9048 -75.5986 -75.5704 -75.5704 -75.5239 -75.5233
   -75.5233 -75.5227 -75.5227 -75.5222 -75.5148 -75.5145 -75.5145 -75.5130
   -75.5130 -75.5130 -75.5127 -75.5127 -75.5123 -75.5116 -75.5110 -75.5110
   -75.4945 -75.4945 -75.4939 -75.4916 -75.4911 -75.4911 -75.4877 -75.4874
   -75.4874 -75.4830 -75.4830 -75.4825 -75.4825 -75.4821 -75.4821 -75.4773
   -75.4770 -75.4770 -75.4687 -75.4686 -75.4686 -75.4684 -75.4684 -75.4682
   -75.4646 -75.4646 -75.4644 -75.4616 -75.4610 -75.4610 -75.4593 -75.4587
   -75.4587 -75.4585 -75.4585 -75.4582 -75.4579 -75.4577 -75.4577 -75.4565
   -75.4564 -75.4564 -75.4562 -75.4562 -75.4560 -75.4380 -75.4380 -75.4370
   -75.4369 -75.4369 -75.4366 -75.4366 -75.4365 -75.4327 -75.4295 -75.4293
   -75.4293 -75.4289 -75.4289 -75.4287 -75.4242 -75.4237 -75.4237 -75.4234
   -75.4234 -75.4229 -75.4080 -75.4079 -75.4079 -75.4077 -75.4077 -75.4076
   -75.3956 -75.3954 -75.3954 -75.3950 -75.3950 -75.3947 -75.3912 -75.3910
   -75.3910 -75.3905 -75.3905 -75.3903 -75.3871 -75.3871 -75.3867 -75.3834
   -75.3831 -75.3831 -75.3825 -75.3825 -75.3823 -75.3814 -75.3813 -75.3813
   -75.3746 -75.3743 -75.3743 -75.3739 -75.3739 -75.3736 -75.3700 -75.3699
   -75.3699 -75.3695 -75.3695 -75.3694 -75.3687 -75.3674 -75.3672 -75.3672
   -75.3668 -75.3668 -75.3665 -75.3647 -75.3647 -75.3632 -75.3632 -75.3632
   -75.3582 -75.3582 -75.3576 -75.3575 -75.3572 -75.3571 -75.3571 -75.3569
   -75.3569 -75.3505 -75.3497 -75.3497 -75.3485 -75.3485 -75.3484 -75.2986
   -75.2985 -75.2985 -75.2973 -75.2968 -75.2968 -75.2940 -75.2938 -75.2935
   -75.2935 -75.2932 -75.2932 -75.2929 -75.2923 -75.2923 -75.2923 -75.2922
   -75.2922 -75.2907 -75.2907 -75.2905 -75.2905 -75.2902 -75.2902 -75.2902
   -75.2901 -75.2900 -75.2898 -75.2898 -75.2895 -75.2889 -75.2886 -75.2886
   -75.2884 -75.2884 -75.2883 -75.2882 -75.2882 -75.2881 -75.2880 -75.2880
   -75.2880 -75.2868 -75.2868 -75.2867 -75.2860 -75.2857 -75.2854 -75.2854
   -75.2853 -75.2853 -75.2852 -75.2850 -75.2850 -75.2847 -75.2843 -75.2841
   -75.2841 -75.2836 -75.2836 -75.2835 -75.2835 -75.2835 -75.2688 -75.2688
   -75.2688 -75.2684 -75.2684 -75.2684 -75.2636 -75.2634 -75.2634 -75.2633
   -75.2633 -75.2630 -75.2625 -75.2618 -75.2618 -75.2617 -75.2617 -75.2610
   -75.2444 -75.2444 -75.2444 -75.2403 -75.2393 -75.2391 -75.2391 -75.2385
   -75.2385 -75.2383 -75.2343 -75.2343 -57.0460 -29.0174 -29.0174 -27.9104
   -12.7561 -12.3765 -12.3765 -12.0633 -11.9444 -11.8558 -11.8542 -11.8542
   -11.7891 -11.7891 -11.7787 -11.7530 -11.7050 -11.7050 -11.6493 -11.6236
   -11.6236 -11.6072 -11.6072 -11.5807 -11.5728 -11.5728 -11.5586 -11.5543
   -11.5343 -11.5305 -11.5113 -11.4991 -11.4889 -11.4889 -11.4572 -11.4572
   -11.4387 -11.4387 -11.4385 -11.4078 -11.3817 -11.3817 -11.3779 -11.3779
   -11.3621 -11.3621 -11.3521 -11.3403 -11.3162 -11.3139 -11.3139 -11.2921
   -11.2893 -11.2893 -11.2831 -11.2700 -11.2700 -11.2588 -11.2544 -11.2544
   -11.2488 -11.2488 -11.2430 -11.2378 -11.2362 -11.2362 -11.2228 -11.2197
   -11.2197 -11.2064 -11.1745 -11.1745 -11.1684 -11.1684 -11.1665 -11.1532
   -11.1532 -11.1516 -11.1417 -11.1387 -11.1387 -11.1328 -11.1135 -11.1135
   -11.1125 -11.1125 -11.0977 -11.0956 -11.0949 -11.0949 -11.0535 -11.0454
   -11.0454 -11.0342 -11.0152 -11.0152 -11.0106 -11.0106 -11.0074   0.7388
     0.7388   0.7462   0.7903   0.7903   0.7958   0.8148   0.8148   0.8186
     0.8186   0.8203   0.8391   0.8391   0.8631   0.8755   0.8755   0.8846
     0.9070   0.9070   0.9165   0.9257   0.9257   0.9394   0.9540   0.9566
     0.9566   0.9788   0.9909   0.9997   0.9997   1.0138   1.0274   1.0274
     1.0556   1.0556   1.0571   1.0651   1.0672   1.0672   1.0751   1.0924
     1.0924   1.1046   1.1046   1.1095   1.1133   1.1230   1.1230   1.1413
     1.1415   1.1415   1.1474   1.1484   1.1506   1.1506   1.1609   1.1609
     1.1694   1.1694   1.1752   1.1772   1.1882   1.1882   1.1917   1.1923
     1.1958   1.1958   1.1960   1.2028   1.2028   1.2122   1.2191   1.2191
     1.2281   1.2293   1.2293   1.2310   1.2310   1.2386   1.2386   1.2434
     1.2434   1.2450   1.2565   1.2565   1.2605   1.2757   1.2757   1.2770
     1.2835   1.2835   1.2894   1.2963   1.2963   1.3075   1.3083   1.3083
     1.3119   1.3123   1.3123   1.3221   1.3234   1.3234   1.3258   1.3258
     1.3261   1.3313   1.3315   1.3323   1.3323   1.3365   1.3365   1.3429
     1.3429   1.3445   1.3525   1.3645   1.3688   1.3688   1.3688   1.3804
     1.3804   1.3848   1.3848   1.3888   1.3946   1.3946   1.3980   1.4007
     1.4007   1.4052   1.4093   1.4093   1.4188   1.4230   1.4230   1.4244
     1.4288   1.4317   1.4344   1.4344   1.4368   1.4368   1.4505   1.4513
     1.4513   1.4600   1.4606   1.4606   1.4614   1.4715   1.4715   1.4792
     1.4824   1.4824   1.4870   1.4902   1.4967   1.4967   1.5061   1.5061
     1.5175   1.5182   1.5182   1.5268   1.5290   1.5290   1.5345   1.5384
     1.5384   1.5447   1.5447   1.5490   1.5524   1.5524   1.5567   1.5576
     1.5586   1.5586   1.5668   1.5668   1.5719   1.5728   1.5728   1.5736
     1.5836   1.5836   1.5847   1.5862   1.5893   1.5893   1.5924   1.5924
     1.5997   1.6036   1.6036   1.6122   1.6122   1.6133   1.6195   1.6271
     1.6325   1.6325   1.6327   1.6477   1.6477   1.6484   1.6527   1.6527
     1.6540   1.6540   1.6700   1.6700   1.6707   1.6723   1.6762   1.6762
     1.6824   1.6838   1.6838   1.6988   1.7031   1.7059   1.7059   1.7124
     1.7124   1.7237   1.7237   1.7328   1.7349   1.7373   1.7373   1.7442
     1.7560   1.7610   1.7616   1.7616   1.7677   1.7729   1.7729   1.7814
     1.7814   1.7971   1.7971   1.8147   1.8147   1.8177   1.8216   1.8216
     1.8216   1.8224   1.8270   1.8270   1.8300   1.8351   1.8351   1.8454
     1.8519   1.8519   1.8544   1.8544   1.8612   1.8791   1.8791   1.9002
     1.9004   1.9052   1.9064   1.9064   1.9132   1.9132   1.9234   1.9235
     1.9235   1.9303   1.9460   1.9460   1.9461   1.9594   1.9594   1.9639
     1.9685   1.9685   1.9726   1.9870   1.9918   1.9918   1.9923   1.9982
     1.9982   2.0103   2.0186   2.0186   2.0208   2.0296   2.0296   2.0329
     2.0329   2.0510   2.0529   2.0529   2.0624   2.0770   2.0812   2.0812
     2.0839   2.0921   2.0931   2.0931   2.1032   2.1032   2.1114   2.1261
     2.1261   2.1295   2.1316   2.1316   2.1366   2.1366   2.1431   2.1481
     2.1481   2.1583   2.1650   2.1680   2.1680   2.1834   2.1863   2.1863
     2.1899   2.1943   2.1943   2.1952   2.1955   2.1955   2.2108   2.2108
     2.2120   2.2238   2.2238   2.2295   2.2360   2.2369   2.2369   2.2397
     2.2436   2.2436   2.2441   2.2448   2.2448   2.2491   2.2504   2.2504
     2.2560   2.2588   2.2588   2.2607   2.2607   2.2644   2.2657   2.2732
     2.2732   2.2803   2.2830   2.2943   2.2943   2.2988   2.2988   2.3022
     2.3022   2.3140   2.3180   2.3180   2.3218   2.3218   2.3239   2.3257
     2.3257   2.3324   2.3399   2.3399   2.3444   2.3457   2.3457   2.3480
     2.3480   2.3480   2.3584   2.3584   2.3611   2.3611   2.3641   2.3708
     2.3736   2.3736   2.3773   2.3818   2.3818   2.3863   2.3865   2.3865
     2.3892   2.3892   2.3934   2.3972   2.4061   2.4061   2.4145   2.4215
     2.4215   2.4224   2.4292   2.4292   2.4366   2.4372   2.4372   2.4381
     2.4381   2.4400   2.4438   2.4438   2.4443   2.4497   2.4572   2.4573
     2.4573   2.4600   2.4600   2.4649   2.4660   2.4689   2.4689   2.4723
     2.4723   2.4754   2.4754   2.4992   2.4992   2.4996   2.5019   2.5039
     2.5039   2.5193   2.5230   2.5230   2.5313   2.5313   2.5319   2.5475
     2.5557   2.5557   2.5677   2.5982   2.6019   2.6019   2.6062   2.6062
     2.6142   2.6293   2.6306   2.6306   2.6320   2.6516   2.6516   2.6658
     2.6658   2.6989   2.6989   2.7306   2.7643   2.7668   2.7668   2.7715
     2.7965   2.7965   2.9465   3.0221   3.0221   3.2462   3.2671   3.2671
     3.4581   3.4978   3.4978   3.5117   3.5357   3.5357   3.5578   3.5578
     3.5797   3.6079   3.6243   3.6705   3.6705   3.7164   3.7625   3.7625
     3.7976   3.7976   3.8080   3.9171   3.9534   3.9534   3.9559   3.9722
     3.9722   3.9864   4.0015   4.0015   4.0515   4.0515   4.0650   4.0780
     4.1020   4.1020   4.1180   4.1180   4.1256   4.2555   4.2555   4.2809
     4.3079   4.3477   4.3503   4.3503   4.3542   4.3730   4.3782   4.3782
     4.4057   4.4057   4.4679   4.4679   4.4940   4.4940   4.4940   4.4941
     4.5253   4.5253   4.5626   4.5800   4.5800   4.6305   4.6305   4.6358
     4.6552   4.6552   4.6563   4.6795   4.6866   4.7199   4.7199   4.9281
     4.9281   4.9595   5.0649   5.0894   5.0925   5.0925   5.1572   5.1572
     5.2112   5.2274   5.2274   5.2284   5.2653   5.2653   5.2669   5.2860
     5.2860   5.3340   5.3340   5.3536   5.3614   5.3614   5.3746   5.3869
     5.3994   5.4049   5.4105   5.4105   5.4593   5.4593   5.4956   5.5089
     5.5089   5.5513   5.5732   5.5732   5.5899   5.5899   5.5970   5.6262
     5.6280   5.6280   5.6982   5.6982   5.7034   5.7934   5.7934   5.9037
     5.9037   5.9443   6.0311   6.0311   6.0536   6.0994   6.0994   6.1067
     6.1194   6.1194   6.1323   6.1572   6.1572   6.1597   6.1719   6.1767
     6.1767   6.1871   6.1945   6.1945   6.1949   6.2046   6.2205   6.2205
     6.2251   6.2290   6.2290   6.2377   6.2469   6.2469   6.2961   6.2994
     6.2994   6.3154   6.3394   6.3394   6.3473   6.3473   6.3671   6.3703
     6.3830   6.3830   6.3966   6.3966   6.4098   6.4415   6.4447   6.4447
     6.4662   6.4662   6.4712   6.5049   6.5460   6.5460   6.5851   6.5893
     6.5893   6.6295   6.6295   6.6761   6.7392   6.7602   6.7697   6.7697
     6.8065   6.8065   6.8161   6.8303   6.8350   6.8350   6.8647   6.8648
     6.8648   6.8762   6.8925   6.8925   6.9017   6.9189   6.9189   6.9284
     6.9334   6.9387   6.9387   6.9493   6.9594   6.9594   6.9705   6.9821
     6.9821   6.9866   6.9975   7.0028   7.0028   7.0413   7.0413   7.1086
     7.1197   7.1197   7.1341   7.1440   7.1461   7.1461   7.1519   7.1640
     7.1640   7.1754   7.1754   7.2043   7.2043   7.2449   7.2598   7.2598
     7.3238   7.3438   7.3438   7.3485   7.3728   7.3728   7.4091   7.4091
     7.4215   7.4215   7.4264   7.4264   7.4498   7.4533   7.4552   7.4881
     7.4881   7.5065   7.5065   7.5144   7.5304   7.5589   7.5589   7.5687
     7.5857   7.6212   7.6212   7.6422   7.6422   7.6924   7.6924   7.7635
     7.7635   7.7938   7.8065   7.8065   7.8466   7.8649   7.8649   7.8748
     7.9885   7.9885   8.0733   8.0733   8.1785   8.3135   8.3135   9.1306
    11.6767  12.9562  12.9562  13.0044  13.1804  13.5170  14.0085  14.0085
    14.1004  14.1004  14.1484  14.1701  14.1701  14.2729  14.7618  14.8034
    14.8035  14.8651  14.8651  14.9294  17.2641  17.2847  17.2930  17.3437
    17.3483  17.5459  17.6621  17.9124  18.2736  18.2736  18.2986  18.2986
    18.3421  18.4598  18.5445  18.5786  18.5798  18.6175  18.8667  18.8777
    18.8779  18.9371  18.9372  18.9830  19.0033  19.0033  19.0465  19.0469
    19.0601  19.0601  19.0657  19.0657  19.0698  19.0766  19.0956  19.1452
    19.2427  19.2427  19.2671  19.2948  19.3031  19.3031  19.3255  19.3257
    19.3471  19.3471  19.4144  19.4230  19.4230  19.4400  19.4540  19.4652
    19.4652  19.5053  19.5158  19.5159  19.6763  19.7486  19.7495  19.7495
    19.7895  19.7895  19.8164  19.8507  19.8507  19.8777  19.9958  19.9959
    20.1033  20.1889  20.1890  20.2507  20.2507  20.2779  20.2829  20.3191
    20.3192  20.5299  20.6479  20.6783  20.6783  20.6979  20.6979  20.7392
    20.8915  20.8916  21.0824  21.0824  21.1274  21.2262  21.2264  21.3382
    21.4308  21.5496  21.5503  21.6169  21.6771  21.7043  21.7044  21.7379
    21.7872  21.7875  21.7953  21.8182  21.8182  21.8507  21.8595  21.8596
    21.8750  21.8953  21.8956  21.9326  21.9402  21.9403  22.0494  22.0499
    22.0986  22.2046  22.2135  22.2335  22.2444  22.2444  22.2651  22.3202
    22.3297  22.3307  22.3474  22.3745  22.3892  22.3930  22.4056  22.4404
    22.4873  22.4875  22.5108  22.5375  22.5414  22.5637  22.5645  22.5793
    22.5940  22.5960  22.5962  22.6107  22.6307  22.6311  22.6663  22.6834
    22.6834  22.7018  22.7123  22.7138  22.7261  22.7270  22.7287  22.7970
    22.8009  22.8037  22.8104  22.8165  22.8628  22.8901  22.9135  22.9138
    22.9335  22.9506  22.9646  22.9810  22.9930  23.0110  23.0899  23.0939
    23.1581  23.2534  23.2589  23.3977  23.4038  23.4038  23.4772  23.5108
    23.5275  23.5279  23.5985  23.5986  23.7442  23.7911  23.7912  23.8553
    23.8711  24.0010  24.0010  24.0224  24.0492  24.0517  24.0600  24.0600
    24.0809  24.0810  24.0852  24.0853  24.0912  24.0914  24.1086  24.2215
    24.2215  24.2226  24.2389  24.3092  24.3092  24.3795  24.3796  24.4022
    24.5380  24.5999  24.6013  24.6249  24.6802  24.6808  24.6884  24.7123
    24.7311  24.7380  24.7414  24.7499  24.7523  24.7860  24.8114  24.8196
    24.8242  24.8432  24.8503  24.8641  24.8716  24.8820  24.9072  24.9742
    24.9751  24.9932  25.0453  25.0585  25.0660  25.1032  25.1036  25.1303
    25.1468  25.1468  25.2224  25.2228  25.2380  25.2768  25.2958  25.2958
    25.3349  25.3653  25.3683  25.3708  25.3807  25.3850  25.3897  25.4079
    25.4086  25.4638  25.4684  25.5358  25.6506  25.7808  25.7809  25.8232
    25.8625  25.8625  25.9014  25.9274  25.9275  25.9385  25.9386  25.9394
    25.9610  25.9612  25.9612  25.9912  25.9964  25.9964  26.1059  26.1059
    26.1592  26.1594  26.1997  26.2392  26.2393  26.2688  26.3091  26.3091
    26.4668  26.4669  26.5453  26.6034  26.6076  26.6080  26.6495  26.6746
    26.7149  26.7149  26.7220  26.7349  26.7350  26.7558  26.7618  26.7618
    26.7888  26.8128  26.8128  26.8413  26.8413  26.8512  26.8575  26.8575
    26.8578  26.8833  26.8834  26.9822  26.9825  27.0407  27.0407  27.1076
    27.1428  27.1728  27.1728  27.1816  27.2066  27.2067  27.2068  27.3011
    27.3013  27.3545  27.3548  27.3672  27.4336  27.4597  27.4597  27.4795
    27.4967  27.4967  27.5082  27.5833  27.5833  27.6459  27.6603  27.6697
    27.6697  27.7081  27.7480  27.7482  27.7596  27.7605  27.8737  27.8738
    27.8995  27.9562  27.9568  28.0710  28.1113  28.1141  28.1526  28.4381
    28.4554  28.4590  28.4830  28.4845  28.5125  28.5187  28.5194  28.5486
    28.5678  28.5869  28.6117  28.6117  28.6348  28.6426  28.6704  28.6808
    28.6810  28.6996  28.7010  28.7122  28.7683  28.8416  28.8462  28.8474
    28.8627  28.8629  28.9833  29.0029  29.0033  29.0259  29.0368  29.0368
    29.0418  29.0488  29.0627  29.0631  29.0873  29.0873  29.1247  29.1374
    29.1375  29.1768  29.1768  29.1816  29.2706  29.2707  29.3036  29.4950
    29.6042  29.6902  29.6903  29.7724  30.0453  30.4177  30.4861  30.4863
    30.4864  30.5809  30.5973  30.5973  30.6867  30.6868  30.7278  30.7278
    30.7435  30.7449  30.7851  30.7851  30.7954  30.8059  30.8097  30.8172
    30.8172  30.8336  30.8336  30.8366  30.8367  30.9153  30.9155  30.9371
    30.9557  30.9904  30.9905  31.0236  31.0236  31.0434  31.0556  31.0582
    31.0582  31.0630  31.0631  31.0982  31.0983  31.1810  31.3841  31.4364
    31.4365  31.4629  31.5852  31.8635  31.8635  31.8953  31.9066  31.9066
    31.9669  31.9669  32.0679  32.0679  32.0699  32.1019  32.1475  32.1475
    32.1491  32.1660  32.1660  32.1720  32.1975  32.2007  32.2008  32.2126
    32.2126  32.2274  32.3058  32.3083  32.3084  32.4246  32.4246  32.5788
    32.5789  32.5980  32.6977  32.6978  32.9076  32.9603  32.9881  32.9881
    33.0478  33.0478  33.0496  33.1747  33.2141  33.2141  33.3039  33.3039
    33.3262  33.3262  33.5395  33.5396  33.6475  33.7184  33.7520  33.7520
    33.7999  33.7999  33.8069  33.8217  33.8217  33.8248  33.8653  33.8653
    33.8654  33.9648  33.9648  33.9651  34.0378  34.0529  34.0531  34.2345
    34.3292  34.3293  34.3377  34.3468  34.3468  34.4698  34.4698  34.5604
    34.6661  34.7146  34.7157  34.7293  34.7478  34.7721  34.7788  34.7980
    34.8243  34.8244  34.8408  34.8498  34.9371  34.9372  34.9380  34.9521
    34.9658  35.0071  35.0075  35.0466  35.0468  35.0470  35.1156  35.1180
    35.1209  35.1974  35.1994  35.2054  35.2056  35.2081  35.2243  35.2322
    35.2553  35.2836  35.2839  35.2993  35.3136  35.3294  35.3544  35.3607
    35.3671  35.3846  35.3989  35.4012  35.4331  35.4823  35.4896  35.4938
    35.5048  35.5201  35.5253  35.5316  35.5318  35.5724  35.5762  35.6148
    35.6594  35.6598  35.6854  35.6861  35.7020  35.7549  35.7618  35.7628
    35.8094  35.8099  35.8215  35.8215  35.8521  35.8633  35.9428  35.9431
    36.0430  36.0982  36.0996  36.1146  36.2916  36.3313  36.3391  36.3391
    36.3813  36.3852  36.3852  36.4820  36.4821  36.4830  36.4958  36.5052
    36.5201  36.5201  36.5462  36.5463  36.5612  36.6103  36.8351  36.8353
    36.8798  36.8886  36.9354  36.9656  36.9657  37.0178  37.0186  37.0468
    37.0778  37.0794  37.0812  37.0847  37.0915  37.0992  37.1111  37.1232
    37.1277  37.1438  37.1445  37.1471  37.1578  37.1645  37.1720  37.1723
    37.2002  37.2031  37.2070  37.2070  37.2146  37.2147  37.2232  37.2445
    37.2454  37.2603  37.2603  37.2765  37.2765  37.2825  37.3493  37.3741
    37.3748  37.4309  37.4315  37.4515  37.5040  37.5040  37.6229  37.7010
    37.7016  37.7050  37.7057  37.7433  37.7442  37.7739  37.7740  37.7905
    37.8012  37.8049  37.8051  37.8210  37.8232  37.8347  37.8688  37.8912
    37.8913  37.9019  37.9104  37.9143  37.9319  37.9323  37.9473  37.9498
    37.9508  37.9758  38.0143  38.0144  38.0835  38.1077  38.1093  38.1900
    38.1900  38.2083  38.2220  38.2221  38.2642  38.2643  38.2647  38.2933
    38.2935  38.3258  38.3635  38.3635  38.3814  38.3820  38.4127  38.4302
    38.4774  38.4774  38.4952  38.5233  38.5233  38.5444  38.5672  38.5672
    38.5764  38.5821  38.5821  38.6288  38.6290  38.7000  38.7001  38.7104
    38.7391  38.7392  38.7583  38.7902  38.8058  38.8560  38.8561  38.8602
    38.8603  38.8693  38.8872  38.9190  39.0279  39.0280  39.1036  39.1187
    39.1188  39.2606  39.2883  39.2883  39.3716  39.3717  39.3791  39.3809
    39.3809  39.3835  39.4623  39.4839  39.4839  39.5399  39.5400  39.5546
    39.6868  39.6869  39.7151  39.7152  39.7816  39.7820  39.7838  39.7866
    39.7867  39.7912  39.8251  39.8557  39.8557  39.8752  39.8752  39.9262
    39.9475  39.9479  39.9480  39.9577  40.0136  40.0136  40.0444  40.0444
    40.0498  40.0558  40.0942  40.0943  40.1073  40.1073  40.1363  40.1440
    40.2285  40.2746  40.2747  40.4122  40.4402  40.4755  40.4756  40.4935
    40.5147  40.5147  40.5666  40.5667  40.5781  40.5813  40.5813  40.5819
    40.6281  40.6511  40.6512  40.6699  40.6854  40.6921  40.6928  40.6982
    40.6983  40.7279  40.7885  40.7886  40.7958  40.8177  40.8180  40.8418
    40.9160  40.9175  41.0044  41.0049  41.0114  41.0417  41.0507  41.0515
    41.0624  41.1103  41.1111  41.1406  41.1410  41.1496  41.1525  41.1548
    41.1631  41.1707  41.1840  41.1867  41.2020  41.2099  41.2124  41.2162
    41.2194  41.2248  41.2248  41.2290  41.2473  41.2804  41.2865  41.2997
    41.3172  41.3328  41.3353  41.3502  41.3977  41.4041  41.5214  41.5250
    41.5287  41.5628  41.6296  41.6297  41.6813  41.6855  41.6959  41.7196
    41.7218  41.7352  41.7467  41.7492  41.7588  41.7913  41.7931  41.7975
    41.7976  41.8614  41.8666  41.8922  41.9002  41.9702  41.9819  41.9893
    41.9992  42.0514  42.0517  42.0563  42.0696  42.1090  42.1168  42.1210
    42.1845  42.1916  42.2241  42.2512  42.2513  42.2573  42.2574  42.2586
    42.3057  42.3058  42.3061  42.3235  42.3407  42.3758  42.3759  42.4258
    42.4892  42.4892  42.5359  42.5407  42.5407  42.6116  42.6384  42.6384
    42.6884  42.6897  42.7145  42.7689  42.7689  42.8517  42.8538  42.8623
    42.8625  42.9076  42.9303  42.9303  42.9338  42.9502  42.9586  42.9587
    42.9812  42.9812  42.9909  42.9910  42.9967  43.0171  43.0614  43.0614
    43.1075  43.1481  43.1485  43.1804  43.2426  43.2721  43.3058  43.3059
    43.3393  43.3394  43.4291  43.4737  43.4748  43.4914  43.5179  43.5179
    43.6077  43.6078  43.6403  43.6403  43.6767  43.7025  43.7027  43.7078
    43.7129  43.7224  43.7242  43.7247  43.7385  43.7385  43.7429  43.7938
    43.7940  43.8069  43.9215  43.9433  43.9467  43.9521  43.9640  43.9688
    43.9951  44.0326  44.0372  44.0890  44.0897  44.1576  44.1675  44.1778
    44.2439  44.3652  44.3674  44.3962  44.3982  44.4065  44.4066  44.4874
    44.5442  44.5445  44.5535  44.5580  44.5953  44.5953  44.6025  44.6031
    44.6069  44.6155  44.6294  44.6338  44.6339  44.6651  44.6651  44.6717
    44.6763  44.6768  44.6904  44.7394  44.7398  44.7429  44.7778  44.8054
    44.8065  44.8650  44.8651  44.8739  44.8750  44.8793  44.8917  44.8918
    44.9172  44.9212  44.9622  44.9646  45.0748  45.1314  45.1315  45.1371
    45.1458  45.2180  45.2580  45.2582  45.2915  45.3451  45.3451  45.4007
    45.4075  45.4080  45.4368  45.4539  45.4539  45.4603  45.4611  45.4876
    45.4958  45.4960  45.5301  45.5302  45.5417  45.5839  45.5839  45.5873
    45.5947  45.5948  45.5948  45.6183  45.6183  45.6279  45.6618  45.6618
    45.6861  45.6861  45.7596  45.7769  45.7770  45.7988  45.8395  45.8395
    45.8469  45.8469  45.8485  45.8586  45.8986  45.8986  45.9266  45.9316
    45.9317  45.9709  45.9790  45.9809  45.9809  45.9899  45.9929  45.9932
    46.0059  46.0114  46.0114  46.0326  46.0327  46.0815  46.0818  46.1200
    46.1856  46.1861  46.2959  46.3214  46.3222  46.3470  46.3746  46.3750
    46.4496  46.4510  46.4723  46.5058  46.5060  46.5083  46.5115  46.5207
    46.5488  46.5497  46.5632  46.5632  46.5791  46.5804  46.5852  46.6057
    46.6156  46.6640  46.6858  46.7141  46.7163  46.7323  46.7561  46.7564
    46.9170  46.9171  46.9419  46.9627  47.0156  47.0156  47.0527  47.0579
    47.0580  47.0816  47.0817  47.0952  47.0952  47.1005  47.1191  47.1488
    47.1488  47.1507  47.1752  47.2007  47.2007  47.2090  47.2803  47.2803
    47.2911  47.3420  47.3421  47.4419  47.5152  47.5152  47.5830  47.6561
    47.6562  47.6960  47.7038  47.7038  47.7818  47.8108  47.8470  47.8763
    47.8764  47.8777  47.9180  47.9180  47.9534  47.9722  47.9722  47.9926
    48.0401  48.0527  48.0528  48.1932  48.4863  48.4863  48.5103  48.5854
    48.5854  48.6234  48.6782  48.6938  48.6947  48.6947  48.7254  48.7254
    48.7793  48.8107  48.8107  48.8168  48.8168  48.8254  48.8463  48.8468
    48.8631  48.8948  48.9148  48.9155  48.9189  49.0024  49.0029  49.0165
    49.0331  49.0334  49.0438  49.0440  49.0537  49.0573  49.0581  49.1541
    49.1542  49.1578  49.2081  49.2957  49.2992  49.3022  49.3022  49.3283
    49.3283  49.3947  49.3947  49.4024  49.4158  49.4158  49.4161  49.4527
    49.4527  49.4603  49.4686  49.4929  49.4929  49.5139  49.5139  49.5181
    49.5466  49.5466  49.5542  49.5542  49.5970  49.6003  49.6197  49.6197
    49.6433  49.6433  49.6917  49.6917  49.6927  49.7055  49.7424  49.7501
    49.7566  49.7566  49.7696  49.7696  49.7834  49.7893  49.7893  49.8708
    49.8760  49.8835  49.8835  49.8898  49.9164  49.9164  49.9748  49.9749
    50.0061  50.0062  50.0186  50.0569  50.0644  50.0644  50.0819  50.1239
    50.1240  50.1256  50.1326  50.1624  50.1632  50.2237  50.2242  50.2686
    50.2687  50.2973  50.3008  50.3260  50.3443  50.3469  50.4000  50.4466
    50.4473  50.5413  50.5414  50.5756  50.5756  50.5926  50.7188  50.7188
    50.7224  50.7476  50.7476  50.7689  50.7689  50.7711  50.7896  50.8070
    50.8071  50.8250  50.8250  50.8351  50.8581  50.8741  50.8757  50.9006
    50.9006  50.9112  50.9113  50.9275  50.9276  50.9277  50.9303  50.9335
    50.9335  50.9725  50.9991  50.9991  51.0569  51.0629  51.0695  51.0698
    51.0907  51.0909  51.1112  51.1570  51.1577  51.1696  51.1696  51.1730
    51.1928  51.1933  51.2822  51.2837  51.2857  51.3014  51.3035  51.3046
    51.3348  51.3366  51.3482  51.3564  51.3632  51.3813  51.3928  51.3970
    51.4094  51.4809  51.4952  51.4956  51.5189  51.5195  51.5697  51.6395
    51.6797  51.6797  51.6837  51.7859  51.8114  51.8117  51.8118  51.8738
    51.8739  51.8755  51.9083  51.9083  51.9161  51.9441  51.9441  51.9626
    51.9626  51.9658  51.9911  51.9912  51.9923  52.0331  52.0331  52.0761
    52.0761  52.0863  52.0863  52.0932  52.1054  52.1054  52.1069  52.1226
    52.1635  52.1643  52.1889  52.1890  52.2178  52.2241  52.2241  52.2424
    52.2595  52.2595  52.2747  52.2747  52.2789  52.2938  52.2939  52.3264
    52.3533  52.3533  52.4245  52.4362  52.4363  52.4392  52.5882  52.6991
    52.6991  52.8103  52.8103  52.8498  52.8743  52.8744  52.9651  52.9769
    52.9769  53.0117  53.0202  53.0203  53.0537  53.0884  53.0884  53.0918
    53.1263  53.1299  53.1299  53.1472  53.1484  53.1484  53.3057  53.3058
    53.3767  53.3983  53.3983  53.4209  53.4209  53.4430  53.4430  53.4439
    53.4960  53.5130  53.5244  53.5568  53.5569  53.5986  53.5987  53.6190
    53.6190  53.6625  53.6914  54.0174  54.0192  54.0407  54.0407  54.0809
    54.0957  54.0957  54.1366  54.1842  54.1871  54.1875  54.1876  54.2183
    54.2189  54.2392  54.2394  54.2539  54.2724  54.2724  54.2739  54.3040
    54.3040  54.3560  54.3560  54.3642  54.4358  54.4556  54.4838  54.5195
    54.5195  54.5571  54.5572  54.5973  54.5973  54.6064  54.6762  54.6763
    54.6836  54.7015  54.7015  54.7243  54.7263  54.7294  54.7426  54.7426
    54.7835  54.7835  54.7849  54.8521  54.8521  54.8589  54.8994  54.8994
    54.9047  54.9250  54.9250  54.9318  54.9466  54.9552  54.9571  54.9571
    54.9907  54.9966  54.9967  55.0202  55.0202  55.0347  55.0533  55.0533
    55.1178  55.1178  55.1295  55.1696  55.1696  55.1797  55.1797  55.1894
    55.1911  55.1973  55.2019  55.2019  55.2610  55.2610  55.2670  55.2865
    55.2866  55.2977  55.3022  55.3022  55.3364  55.3532  55.3532  55.3830
    55.3830  55.3894  55.3953  55.3953  55.4896  55.4939  55.4939  55.5013
    55.5013  55.5480  55.5545  55.6257  55.6257  55.6907  55.6907  55.7341
    55.7341  55.7596  55.7850  55.7850  55.8231  55.8471  55.8491  55.8491
    55.9011  55.9178  55.9178  55.9477  55.9477  55.9571  56.0045  56.0385
    56.0385  56.1012  56.1273  56.1273  56.1810  56.2073  56.2355  56.2355
    56.2971  56.3043  56.3043  56.3268  56.3769  56.3769  56.3988  56.3988
    56.4281  56.4634  56.4634  56.5358  56.5358  56.5557  56.5710  56.5803
    56.5804  56.5832  56.6116  56.6117  56.6305  56.6448  56.6870  56.6871
    56.7053  56.7053  56.8901  56.8905  56.9074  56.9909  56.9910  57.0227
    57.0276  57.0277  57.0443  57.0452  57.0836  57.0940  57.0973  57.0974
    57.1072  57.1440  57.1440  57.1583  57.1620  57.1624  57.1864  57.1868
    57.2024  57.2025  57.2210  57.2214  57.2590  57.2592  57.2594  57.2643
    57.2663  57.2802  57.2805  57.2818  57.2979  57.3071  57.3076  57.3087
    57.3156  57.3244  57.3265  57.3357  57.3375  57.3402  57.3402  57.3518
    57.3519  57.3664  57.3678  57.3810  57.3925  57.4058  57.4069  57.4269
    57.4270  57.4557  57.4558  57.4562  57.4693  57.5336  57.5936  57.5938
    57.6965  57.6965  57.7033  57.7680  57.7974  57.7976  57.8078  57.8246
    57.8381  57.8381  57.8511  57.8511  57.8743  57.9425  57.9425  57.9742
    57.9742  57.9747  58.0085  58.0770  58.0772  58.1398  58.1453  58.1572

     occupation numbers 
     1.0000   1.0000   1.0000   1.0000   1.0000   1.0000   1.0000   1.0000
     1.0000   1.0000   1.0000   1.0000   1.0000   1.0000   1.0000   1.0000
     1.0000   1.0000   1.0000   1.0000   1.0000   1.0000   1.0000   1.0000
     1.0000   1.0000   1.0000   1.0000   1.0000   1.0000   1.0000   1.0000
     1.0000   1.0000   1.0000   1.0000   1.0000   1.0000   1.0000   1.0000
     1.0000   1.0000   1.0000   1.0000   1.0000   1.0000   1.0000   1.0000
     1.0000   1.0000   1.0000   1.0000   1.0000   1.0000   1.0000   1.0000
     1.0000   1.0000   1.0000   1.0000   1.0000   1.0000   1.0000   1.0000
     1.0000   1.0000   1.0000   1.0000   1.0000   1.0000   1.0000   1.0000
     1.0000   1.0000   1.0000   1.0000   1.0000   1.0000   1.0000   1.0000
     1.0000   1.0000   1.0000   1.0000   1.0000   1.0000   1.0000   1.0000
     1.0000   1.0000   1.0000   1.0000   1.0000   1.0000   1.0000   1.0000
     1.0000   1.0000   1.0000   1.0000   1.0000   1.0000   1.0000   1.0000
     1.0000   1.0000   1.0000   1.0000   1.0000   1.0000   1.0000   1.0000
     1.0000   1.0000   1.0000   1.0000   1.0000   1.0000   1.0000   1.0000
     1.0000   1.0000   1.0000   1.0000   1.0000   1.0000   1.0000   1.0000
     1.0000   1.0000   1.0000   1.0000   1.0000   1.0000   1.0000   1.0000
     1.0000   1.0000   1.0000   1.0000   1.0000   1.0000   1.0000   1.0000
     1.0000   1.0000   1.0000   1.0000   1.0000   1.0000   1.0000   1.0000
     1.0000   1.0000   1.0000   1.0000   1.0000   1.0000   1.0000   1.0000
     1.0000   1.0000   1.0000   1.0000   1.0000   1.0000   1.0000   1.0000
     1.0000   1.0000   1.0000   1.0000   1.0000   1.0000   1.0000   1.0000
     1.0000   1.0000   1.0000   1.0000   1.0000   1.0000   1.0000   1.0000
     1.0000   1.0000   1.0000   1.0000   1.0000   1.0000   1.0000   1.0000
     1.0000   1.0000   1.0000   1.0000   1.0000   1.0000   1.0000   1.0000
     1.0000   1.0000   1.0000   1.0000   1.0000   1.0000   1.0000   1.0000
     1.0000   1.0000   1.0000   1.0000   1.0000   1.0000   1.0000   1.0000
     1.0000   1.0000   1.0000   1.0000   1.0000   1.0000   1.0000   1.0000
     1.0000   1.0000   1.0000   1.0000   1.0000   1.0000   1.0000   1.0000
     1.0000   1.0000   1.0000   1.0000   1.0000   1.0000   1.0000   1.0000
     1.0000   1.0000   1.0000   1.0000   1.0000   1.0000   1.0000   1.0000
     1.0000   1.0000   1.0000   1.0000   1.0000   1.0000   1.0000   1.0000
     1.0000   1.0000   1.0000   1.0000   1.0000   1.0000   1.0000   1.0000
     1.0000   1.0000   1.0000   1.0000   1.0000   1.0000   1.0000   1.0000
     1.0000   1.0000   1.0000   1.0000   1.0000   1.0000   1.0000   1.0000
     1.0000   1.0000   1.0000   1.0000   1.0000   1.0000   1.0000   1.0000
     1.0000   1.0000   1.0000   1.0000   1.0000   1.0000   1.0000   1.0000
     1.0000   1.0000   1.0000   1.0000   1.0000   1.0000   1.0000   1.0000
     1.0000   1.0000   1.0000   1.0000   1.0000   1.0000   1.0000   1.0000
     1.0000   1.0000   1.0000   1.0000   1.0000   1.0000   1.0000   1.0000
     1.0000   1.0000   1.0000   1.0000   1.0000   1.0000   1.0000   1.0000
     1.0000   1.0000   1.0000   1.0000   1.0000   1.0000   1.0000   1.0000
     1.0000   1.0000   1.0000   1.0000   1.0000   1.0000   1.0000   1.0000
     1.0000   1.0000   1.0000   1.0000   1.0000   1.0000   1.0000   1.0000
     1.0000   1.0000   1.0000   1.0000   1.0000   1.0000   1.0000   1.0000
     1.0000   1.0000   1.0000   1.0000   1.0000   1.0000   1.0000   1.0000
     1.0000   1.0000   1.0000   1.0000   1.0000   1.0000   1.0000   1.0000
     1.0000   1.0000   1.0000   1.0000   1.0000   1.0000   1.0000   1.0000
     1.0000   1.0000   1.0000   1.0000   1.0000   1.0000   1.0000   1.0000
     1.0000   1.0000   1.0000   1.0000   1.0000   1.0000   1.0000   1.0000
     1.0000   1.0000   1.0000   1.0000   1.0000   1.0000   1.0000   1.0000
     1.0000   1.0000   1.0000   1.0000   1.0000   1.0000   1.0000   1.0000
     1.0000   1.0000   1.0000   1.0000   1.0000   1.0000   1.0000   1.0000
     1.0000   1.0000   1.0000   1.0000   1.0000   1.0000   1.0000   1.0000
     1.0000   1.0000   1.0000   1.0000   1.0000   1.0000   1.0000   1.0000
     1.0000   1.0000   1.0000   1.0000   1.0000   1.0000   1.0000   1.0000
     1.0000   1.0000   1.0000   1.0000   1.0000   1.0000   1.0000   1.0000
     1.0000   1.0000   1.0000   1.0000   1.0000   1.0000   1.0000   1.0000
     1.0000   1.0000   1.0000   1.0000   1.0000   1.0000   1.0000   1.0000
     1.0000   1.0000   1.0000   1.0000   1.0000   1.0000   1.0000   1.0000
     1.0000   1.0000   1.0000   1.0000   1.0000   1.0000   1.0000   1.0000
     1.0000   1.0000   1.0000   1.0000   1.0000   1.0000   1.0000   1.0000
     1.0000   1.0000   1.0000   1.0000   1.0000   1.0000   1.0000   1.0000
     1.0000   1.0000   1.0000   1.0000   1.0000   1.0000   1.0000   1.0000
     1.0000   1.0000   1.0000   1.0000   1.0000   1.0000   1.0000   1.0000
     1.0000   1.0000   1.0000   1.0000   1.0000   1.0000   1.0000   1.0000
     1.0000   1.0000   1.0000   1.0000   1.0000   1.0000   1.0000   1.0000
     1.0000   1.0000   1.0000   1.0000   1.0000   1.0000   1.0000   1.0000
     1.0000   1.0000   1.0000   1.0000   1.0000   1.0000   1.0000   1.0000
     1.0000   1.0000   1.0000   1.0000   1.0000   1.0000   1.0000   1.0000
     1.0000   1.0000   1.0000   1.0000   1.0000   1.0000   1.0000   1.0000
     1.0000   1.0000   1.0000   1.0000   1.0000   1.0000   1.0000   1.0000
     1.0000   1.0000   1.0000   1.0000   1.0000   1.0000   1.0000   1.0000
     1.0000   1.0000   1.0000   1.0000   1.0000   1.0000   1.0000   1.0000
     1.0000   1.0000   1.0000   1.0000   1.0000   1.0000   1.0000   1.0000
     1.0000   1.0000   1.0000   1.0000   1.0000   1.0000   1.0000   1.0000
     1.0000   1.0000   1.0000   1.0000   1.0000   1.0000   1.0000   1.0000
     1.0000   1.0000   1.0000   1.0000   1.0000   1.0000   1.0000   1.0000
     1.0000   1.0000   1.0000   1.0000   1.0000   1.0000   1.0000   1.0000
     1.0000   1.0000   1.0000   1.0000   1.0000   1.0000   1.0000   1.0000
     1.0000   1.0000   1.0000   1.0000   1.0000   1.0000   1.0000   1.0000
     1.0000   1.0000   1.0000   1.0000   1.0000   1.0000   1.0000   1.0000
     1.0000   1.0000   1.0000   1.0000   1.0000   1.0000   1.0000   1.0000
     1.0000   1.0000   1.0000   1.0000   1.0000   1.0000   1.0000   1.0000
     1.0000   1.0000   1.0000   1.0000   1.0000   1.0000   1.0000   1.0000
     1.0000   1.0000   1.0000   1.0000   1.0000   1.0000   1.0000   1.0000
     1.0000   1.0000   1.0000   1.0000   1.0000   1.0000   1.0000   1.0000
     1.0000   1.0000   1.0000   1.0000   1.0000   1.0000   1.0000   1.0000
     1.0000   1.0000   1.0000   1.0000   1.0000   1.0000   1.0000   1.0000
     1.0000   1.0000   1.0000   1.0000   1.0000   1.0000   1.0000   1.0000
     1.0000   1.0000   1.0000   1.0000   1.0000   1.0000   1.0000   1.0000
     1.0000   1.0000   1.0000   1.0000   1.0000   1.0000   1.0000   1.0000
     1.0000   1.0000   1.0000   1.0000   1.0000   1.0000   1.0000   1.0000
     1.0000   1.0000   1.0000   1.0000   1.0000   1.0000   1.0000   1.0000
     1.0000   1.0000   1.0000   1.0000   1.0000   1.0000   1.0000   1.0000
     1.0000   1.0000   1.0000   1.0000   1.0000   1.0000   1.0000   1.0000
     1.0000   1.0000   1.0000   1.0000   1.0000   1.0000   1.0000   1.0000
     1.0000   1.0000   1.0000   1.0000   1.0000   1.0000   1.0000   1.0000
     1.0000   1.0000   1.0000   1.0000   1.0000   1.0000   1.0000   1.0000
     1.0000   1.0000   1.0000   1.0000   1.0000   1.0000   1.0000   1.0000
     1.0000   1.0000   1.0000   1.0000   1.0000   1.0000   1.0000   1.0000
     1.0000   1.0000   1.0000   1.0000   1.0000   1.0000   1.0000   1.0000
     1.0000   1.0000   1.0000   1.0000   1.0000   1.0000   1.0000   1.0000
     1.0000   1.0000   1.0000   1.0000   1.0000   1.0000   1.0000   1.0000
     1.0000   1.0000   1.0000   1.0000   1.0000   1.0000   1.0000   1.0000
     1.0000   1.0000   1.0000   1.0000   1.0000   1.0000   1.0000   1.0000
     1.0000   1.0000   1.0000   1.0000   1.0000   1.0000   1.0000   1.0000
     1.0000   1.0000   1.0000   1.0000   1.0000   1.0000   1.0000   1.0000
     1.0000   1.0000   1.0000   1.0000   1.0000   1.0000   1.0000   1.0000
     1.0000   1.0000   1.0000   1.0000   1.0000   1.0000   1.0000   1.0000
     1.0000   1.0000   1.0000   1.0000   1.0000   1.0000   1.0000   1.0000
     1.0000   1.0000   1.0000   1.0000   1.0000   1.0000   1.0000   1.0000
     1.0000   1.0000   1.0000   1.0000   1.0000   1.0000   1.0000   1.0000
     1.0000   1.0000   1.0000   1.0000   1.0000   1.0000   1.0000   1.0000
     1.0000   1.0000   1.0000   1.0000   1.0000   1.0000   1.0000   1.0000
     1.0000   1.0000   1.0000   1.0000   1.0000   1.0000   1.0000   1.0000
     1.0000   1.0000   1.0000   1.0000   1.0000   1.0000   1.0000   1.0000
     1.0000   1.0000   1.0000   1.0000   1.0000   1.0000   1.0000   1.0000
     1.0000   1.0000   1.0000   1.0000   1.0000   1.0000   1.0000   1.0000
     1.0000   1.0000   1.0000   1.0000   1.0000   1.0000   1.0000   1.0000
     1.0000   1.0000   1.0000   1.0000   1.0000   1.0000   1.0000   1.0000
     1.0000   1.0000   1.0000   1.0000   1.0000   1.0000   1.0000   1.0000
     1.0000   1.0000   1.0000   1.0000   1.0000   1.0000   1.0000   1.0000
     1.0000   1.0000   1.0000   1.0000   1.0000   1.0000   1.0000   1.0000
     1.0000   1.0000   1.0000   1.0000   1.0000   1.0000   1.0000   1.0000
     1.0000   1.0000   1.0000   1.0000   1.0000   1.0000   1.0000   1.0000
     1.0000   1.0000   1.0000   1.0000   1.0000   1.0000   1.0000   1.0000
     1.0000   1.0000   1.0000   1.0000   1.0000   1.0000   1.0000   1.0000
     1.0000   1.0000   1.0000   1.0000   1.0000   1.0000   1.0000   1.0000
     1.0000   1.0000   1.0000   1.0000   1.0000   1.0000   1.0000   1.0000
     1.0000   1.0000   1.0000   1.0000   1.0000   1.0000   1.0000   1.0000
     1.0000   1.0000   1.0000   1.0000   1.0000   1.0000   1.0000   1.0000
     1.0000   1.0000   1.0000   1.0000   1.0000   1.0000   1.0000   1.0000
     1.0000   1.0000   1.0000   1.0000   1.0000   1.0000   1.0000   1.0000
     1.0000   1.0000   1.0000   1.0000   1.0000   1.0000   1.0000   1.0000
     1.0000   1.0000   1.0000   1.0000   1.0000   1.0000   1.0000   1.0000
     1.0000   1.0000   1.0000   1.0000   1.0000   1.0000   1.0000   1.0000
     1.0000   1.0000   1.0000   1.0000   1.0000   1.0000   1.0000   1.0000
     1.0000   1.0000   1.0000   1.0000   1.0000   1.0000   1.0000   1.0000
     1.0000   1.0000   1.0000   1.0000   1.0000   1.0000   1.0000   1.0000
     1.0000   1.0000   1.0000   1.0000   1.0000   1.0000   1.0000   1.0000
     1.0000   1.0000   1.0000   1.0000   1.0000   1.0000   1.0000   1.0000
     1.0000   1.0000   1.0000   1.0000   1.0000   1.0000   1.0000   1.0000
     1.0000   1.0000   1.0000   1.0000   1.0000   1.0000   1.0000   1.0000
     1.0000   1.0000   1.0000   1.0000   1.0000   1.0000   1.0000   1.0000
     1.0000   1.0000   1.0000   1.0000   1.0000   1.0000   1.0000   1.0000
     1.0000   1.0000   1.0000   1.0000   1.0000   1.0000   1.0000   1.0000
     1.0000   1.0000   1.0000   1.0000   1.0000   1.0000   1.0000   1.0000
     1.0000   1.0000   1.0000   1.0000   1.0000   1.0000   1.0000   1.0000
     1.0000   1.0000   1.0000   1.0000   1.0000   1.0000   1.0000   1.0000
     1.0000   1.0000   1.0000   1.0000   1.0000   1.0000   1.0000   1.0000
     1.0000   1.0000   1.0000   1.0000   1.0000   1.0000   1.0000   1.0000
     1.0000   1.0000   1.0000   1.0000   1.0000   1.0000   1.0000   1.0000
     1.0000   1.0000   1.0000   1.0000   1.0000   1.0000   1.0000   1.0000
     1.0000   1.0000   1.0000   1.0000   1.0000   1.0000   1.0000   1.0000
     0.0000   0.0000   0.0000   0.0000   0.0000   0.0000   0.0000   0.0000
     0.0000   0.0000   0.0000   0.0000   0.0000   0.0000   0.0000   0.0000
     0.0000   0.0000   0.0000   0.0000   0.0000   0.0000   0.0000   0.0000
     0.0000   0.0000   0.0000   0.0000   0.0000   0.0000   0.0000   0.0000
     0.0000   0.0000   0.0000   0.0000   0.0000   0.0000   0.0000   0.0000
     0.0000   0.0000   0.0000   0.0000   0.0000   0.0000   0.0000   0.0000
     0.0000   0.0000   0.0000   0.0000   0.0000   0.0000   0.0000   0.0000
     0.0000   0.0000   0.0000   0.0000   0.0000   0.0000   0.0000   0.0000
     0.0000   0.0000   0.0000   0.0000   0.0000   0.0000   0.0000   0.0000
     0.0000   0.0000   0.0000   0.0000   0.0000   0.0000   0.0000   0.0000
     0.0000   0.0000   0.0000   0.0000   0.0000   0.0000   0.0000   0.0000
     0.0000   0.0000   0.0000   0.0000   0.0000   0.0000   0.0000   0.0000
     0.0000   0.0000   0.0000   0.0000   0.0000   0.0000   0.0000   0.0000
     0.0000   0.0000   0.0000   0.0000   0.0000   0.0000   0.0000   0.0000
     0.0000   0.0000   0.0000   0.0000   0.0000   0.0000   0.0000   0.0000
     0.0000   0.0000   0.0000   0.0000   0.0000   0.0000   0.0000   0.0000
     0.0000   0.0000   0.0000   0.0000   0.0000   0.0000   0.0000   0.0000
     0.0000   0.0000   0.0000   0.0000   0.0000   0.0000   0.0000   0.0000
     0.0000   0.0000   0.0000   0.0000   0.0000   0.0000   0.0000   0.0000
     0.0000   0.0000   0.0000   0.0000   0.0000   0.0000   0.0000   0.0000
     0.0000   0.0000   0.0000   0.0000   0.0000   0.0000   0.0000   0.0000
     0.0000   0.0000   0.0000   0.0000   0.0000   0.0000   0.0000   0.0000
     0.0000   0.0000   0.0000   0.0000   0.0000   0.0000   0.0000   0.0000
     0.0000   0.0000   0.0000   0.0000   0.0000   0.0000   0.0000   0.0000
     0.0000   0.0000   0.0000   0.0000   0.0000   0.0000   0.0000   0.0000
     0.0000   0.0000   0.0000   0.0000   0.0000   0.0000   0.0000   0.0000
     0.0000   0.0000   0.0000   0.0000   0.0000   0.0000   0.0000   0.0000
     0.0000   0.0000   0.0000   0.0000   0.0000   0.0000   0.0000   0.0000
     0.0000   0.0000   0.0000   0.0000   0.0000   0.0000   0.0000   0.0000
     0.0000   0.0000   0.0000   0.0000   0.0000   0.0000   0.0000   0.0000
     0.0000   0.0000   0.0000   0.0000   0.0000   0.0000   0.0000   0.0000
     0.0000   0.0000   0.0000   0.0000   0.0000   0.0000   0.0000   0.0000
     0.0000   0.0000   0.0000   0.0000   0.0000   0.0000   0.0000   0.0000
     0.0000   0.0000   0.0000   0.0000   0.0000   0.0000   0.0000   0.0000
[...]
     0.0000   0.0000   0.0000   0.0000   0.0000   0.0000   0.0000   0.0000
     0.0000   0.0000   0.0000   0.0000   0.0000   0.0000   0.0000   0.0000
     0.0000   0.0000   0.0000   0.0000   0.0000   0.0000   0.0000   0.0000
     0.0000   0.0000   0.0000   0.0000   0.0000   0.0000   0.0000   0.0000
     0.0000   0.0000   0.0000   0.0000   0.0000   0.0000   0.0000   0.0000
     0.0000   0.0000   0.0000   0.0000   0.0000   0.0000   0.0000   0.0000
     0.0000   0.0000   0.0000   0.0000   0.0000   0.0000   0.0000   0.0000
     0.0000   0.0000   0.0000   0.0000   0.0000   0.0000   0.0000   0.0000
     0.0000   0.0000   0.0000   0.0000   0.0000   0.0000   0.0000   0.0000
     0.0000   0.0000   0.0000   0.0000   0.0000   0.0000   0.0000   0.0000
     0.0000   0.0000   0.0000   0.0000   0.0000   0.0000   0.0000   0.0000
     0.0000   0.0000   0.0000   0.0000   0.0000   0.0000   0.0000   0.0000
     0.0000   0.0000   0.0000   0.0000   0.0000   0.0000   0.0000   0.0000
     0.0000   0.0000   0.0000   0.0000   0.0000   0.0000   0.0000   0.0000
     0.0000   0.0000   0.0000   0.0000   0.0000   0.0000   0.0000   0.0000
     0.0000   0.0000   0.0000   0.0000   0.0000   0.0000   0.0000   0.0000
     0.0000   0.0000   0.0000   0.0000   0.0000   0.0000   0.0000   0.0000
     0.0000   0.0000   0.0000   0.0000   0.0000   0.0000   0.0000   0.0000
     0.0000   0.0000   0.0000   0.0000   0.0000   0.0000   0.0000   0.0000
     0.0000   0.0000   0.0000   0.0000   0.0000   0.0000   0.0000   0.0000
     0.0000   0.0000   0.0000   0.0000   0.0000   0.0000   0.0000   0.0000
     0.0000   0.0000   0.0000   0.0000   0.0000   0.0000   0.0000   0.0000
     0.0000   0.0000   0.0000   0.0000   0.0000   0.0000   0.0000   0.0000
     0.0000   0.0000   0.0000   0.0000   0.0000   0.0000   0.0000   0.0000
     0.0000   0.0000   0.0000   0.0000   0.0000   0.0000   0.0000   0.0000
     0.0000   0.0000   0.0000   0.0000   0.0000   0.0000   0.0000   0.0000
     0.0000   0.0000   0.0000   0.0000   0.0000   0.0000   0.0000   0.0000
     0.0000   0.0000   0.0000   0.0000   0.0000   0.0000   0.0000   0.0000
     0.0000   0.0000   0.0000   0.0000   0.0000   0.0000   0.0000   0.0000
     0.0000   0.0000   0.0000   0.0000   0.0000   0.0000   0.0000   0.0000
     0.0000   0.0000   0.0000   0.0000   0.0000   0.0000   0.0000   0.0000
     0.0000   0.0000   0.0000   0.0000   0.0000   0.0000   0.0000   0.0000
     0.0000   0.0000   0.0000   0.0000   0.0000   0.0000   0.0000   0.0000
     0.0000   0.0000   0.0000   0.0000   0.0000   0.0000   0.0000   0.0000
     0.0000   0.0000   0.0000   0.0000   0.0000   0.0000   0.0000   0.0000
     0.0000   0.0000   0.0000   0.0000   0.0000   0.0000   0.0000   0.0000
     0.0000   0.0000   0.0000   0.0000   0.0000   0.0000   0.0000   0.0000
     0.0000   0.0000   0.0000   0.0000   0.0000   0.0000   0.0000   0.0000
     0.0000   0.0000   0.0000   0.0000   0.0000   0.0000   0.0000   0.0000
     0.0000   0.0000   0.0000   0.0000   0.0000   0.0000   0.0000   0.0000
     0.0000   0.0000   0.0000   0.0000   0.0000   0.0000   0.0000   0.0000
     0.0000   0.0000   0.0000   0.0000   0.0000   0.0000   0.0000   0.0000
     0.0000   0.0000   0.0000   0.0000   0.0000   0.0000   0.0000   0.0000
     0.0000   0.0000   0.0000   0.0000   0.0000   0.0000   0.0000   0.0000
     0.0000   0.0000   0.0000   0.0000   0.0000   0.0000   0.0000   0.0000
     0.0000   0.0000   0.0000   0.0000   0.0000   0.0000   0.0000   0.0000
     0.0000   0.0000   0.0000   0.0000   0.0000   0.0000   0.0000   0.0000
     0.0000   0.0000   0.0000   0.0000   0.0000   0.0000   0.0000   0.0000
     0.0000   0.0000   0.0000   0.0000   0.0000   0.0000   0.0000   0.0000
     0.0000   0.0000   0.0000   0.0000   0.0000   0.0000   0.0000   0.0000
     0.0000   0.0000   0.0000   0.0000   0.0000   0.0000   0.0000   0.0000
     0.0000   0.0000   0.0000   0.0000   0.0000   0.0000   0.0000   0.0000
     0.0000   0.0000   0.0000   0.0000   0.0000   0.0000   0.0000   0.0000
     0.0000   0.0000   0.0000   0.0000   0.0000   0.0000   0.0000   0.0000
     0.0000   0.0000   0.0000   0.0000   0.0000   0.0000   0.0000   0.0000
     0.0000   0.0000   0.0000   0.0000   0.0000   0.0000   0.0000   0.0000
     0.0000   0.0000   0.0000   0.0000   0.0000   0.0000   0.0000   0.0000
     0.0000   0.0000   0.0000   0.0000   0.0000   0.0000   0.0000   0.0000
     0.0000   0.0000   0.0000   0.0000   0.0000   0.0000   0.0000   0.0000
     0.0000   0.0000   0.0000   0.0000   0.0000   0.0000   0.0000   0.0000
     0.0000   0.0000   0.0000   0.0000   0.0000   0.0000   0.0000   0.0000
     0.0000   0.0000   0.0000   0.0000   0.0000   0.0000   0.0000   0.0000
     0.0000   0.0000   0.0000   0.0000   0.0000   0.0000   0.0000   0.0000
     0.0000   0.0000   0.0000   0.0000   0.0000   0.0000   0.0000   0.0000
     0.0000   0.0000   0.0000   0.0000   0.0000   0.0000   0.0000   0.0000
     0.0000   0.0000   0.0000   0.0000   0.0000   0.0000   0.0000   0.0000
     0.0000   0.0000   0.0000   0.0000   0.0000   0.0000   0.0000   0.0000
     0.0000   0.0000   0.0000   0.0000   0.0000   0.0000   0.0000   0.0000
     0.0000   0.0000   0.0000   0.0000   0.0000   0.0000   0.0000   0.0000
     0.0000   0.0000   0.0000   0.0000   0.0000   0.0000   0.0000   0.0000
     0.0000   0.0000   0.0000   0.0000   0.0000   0.0000   0.0000   0.0000
     0.0000   0.0000   0.0000   0.0000   0.0000   0.0000   0.0000   0.0000
     0.0000   0.0000   0.0000   0.0000   0.0000   0.0000   0.0000   0.0000
     0.0000   0.0000   0.0000   0.0000   0.0000   0.0000   0.0000   0.0000
     0.0000   0.0000   0.0000   0.0000   0.0000   0.0000   0.0000   0.0000
     0.0000   0.0000   0.0000   0.0000   0.0000   0.0000   0.0000   0.0000
     0.0000   0.0000   0.0000   0.0000   0.0000   0.0000   0.0000   0.0000
     0.0000   0.0000   0.0000   0.0000   0.0000   0.0000   0.0000   0.0000
     0.0000   0.0000   0.0000   0.0000   0.0000   0.0000   0.0000   0.0000
     0.0000   0.0000   0.0000   0.0000   0.0000   0.0000   0.0000   0.0000
     0.0000   0.0000   0.0000   0.0000   0.0000   0.0000   0.0000   0.0000
     0.0000   0.0000   0.0000   0.0000   0.0000   0.0000   0.0000   0.0000
     0.0000   0.0000   0.0000   0.0000   0.0000   0.0000   0.0000   0.0000
     0.0000   0.0000   0.0000   0.0000   0.0000   0.0000   0.0000   0.0000
     0.0000   0.0000   0.0000   0.0000   0.0000   0.0000   0.0000   0.0000
     0.0000   0.0000   0.0000   0.0000   0.0000   0.0000   0.0000   0.0000
     0.0000   0.0000   0.0000   0.0000   0.0000   0.0000   0.0000   0.0000
     0.0000   0.0000   0.0000   0.0000   0.0000   0.0000   0.0000   0.0000
     0.0000   0.0000   0.0000   0.0000   0.0000   0.0000   0.0000   0.0000
     0.0000   0.0000   0.0000   0.0000   0.0000   0.0000   0.0000   0.0000
     0.0000   0.0000   0.0000   0.0000   0.0000   0.0000   0.0000   0.0000
     0.0000   0.0000   0.0000   0.0000   0.0000   0.0000   0.0000   0.0000
     0.0000   0.0000   0.0000   0.0000   0.0000   0.0000   0.0000   0.0000
     0.0000   0.0000   0.0000   0.0000   0.0000   0.0000   0.0000   0.0000
     0.0000   0.0000   0.0000   0.0000   0.0000   0.0000   0.0000   0.0000
     0.0000   0.0000   0.0000   0.0000   0.0000   0.0000   0.0000   0.0000
     0.0000   0.0000   0.0000   0.0000   0.0000   0.0000   0.0000   0.0000
     0.0000   0.0000   0.0000   0.0000   0.0000   0.0000   0.0000   0.0000
     0.0000   0.0000   0.0000   0.0000   0.0000   0.0000   0.0000   0.0000
     0.0000   0.0000   0.0000   0.0000   0.0000   0.0000   0.0000   0.0000
     0.0000   0.0000   0.0000   0.0000   0.0000   0.0000   0.0000   0.0000
     0.0000   0.0000   0.0000   0.0000   0.0000   0.0000   0.0000   0.0000
     0.0000   0.0000   0.0000   0.0000   0.0000   0.0000   0.0000   0.0000
     0.0000   0.0000   0.0000   0.0000   0.0000   0.0000   0.0000   0.0000
     0.0000   0.0000   0.0000   0.0000   0.0000   0.0000   0.0000   0.0000
     0.0000   0.0000   0.0000   0.0000   0.0000   0.0000   0.0000   0.0000
     0.0000   0.0000   0.0000   0.0000   0.0000   0.0000   0.0000   0.0000
     0.0000   0.0000   0.0000   0.0000   0.0000   0.0000   0.0000   0.0000
     0.0000   0.0000   0.0000   0.0000   0.0000   0.0000   0.0000   0.0000
     0.0000   0.0000   0.0000   0.0000   0.0000   0.0000   0.0000   0.0000
     0.0000   0.0000   0.0000   0.0000   0.0000   0.0000   0.0000   0.0000
     0.0000   0.0000   0.0000   0.0000   0.0000   0.0000   0.0000   0.0000
     0.0000   0.0000   0.0000   0.0000   0.0000   0.0000   0.0000   0.0000
     0.0000   0.0000   0.0000   0.0000   0.0000   0.0000   0.0000   0.0000
     0.0000   0.0000   0.0000   0.0000   0.0000   0.0000   0.0000   0.0000
     0.0000   0.0000   0.0000   0.0000   0.0000   0.0000   0.0000   0.0000
     0.0000   0.0000   0.0000   0.0000   0.0000   0.0000   0.0000   0.0000
     0.0000   0.0000   0.0000   0.0000   0.0000   0.0000   0.0000   0.0000
     0.0000   0.0000   0.0000   0.0000   0.0000   0.0000   0.0000   0.0000
     0.0000   0.0000   0.0000   0.0000   0.0000   0.0000   0.0000   0.0000
     0.0000   0.0000   0.0000   0.0000   0.0000   0.0000   0.0000   0.0000
     0.0000   0.0000   0.0000   0.0000   0.0000   0.0000   0.0000   0.0000
     0.0000   0.0000   0.0000   0.0000   0.0000   0.0000   0.0000   0.0000
     0.0000   0.0000   0.0000   0.0000   0.0000   0.0000   0.0000   0.0000
     0.0000   0.0000   0.0000   0.0000   0.0000   0.0000   0.0000   0.0000
     0.0000   0.0000   0.0000   0.0000   0.0000   0.0000   0.0000   0.0000
     0.0000   0.0000   0.0000   0.0000   0.0000   0.0000   0.0000   0.0000
     0.0000   0.0000   0.0000   0.0000   0.0000   0.0000   0.0000   0.0000
     0.0000   0.0000   0.0000   0.0000   0.0000   0.0000   0.0000   0.0000
     0.0000   0.0000   0.0000   0.0000   0.0000   0.0000   0.0000   0.0000
     0.0000   0.0000   0.0000   0.0000   0.0000   0.0000   0.0000   0.0000
     0.0000   0.0000   0.0000   0.0000   0.0000   0.0000   0.0000   0.0000
     0.0000   0.0000   0.0000   0.0000   0.0000   0.0000   0.0000   0.0000
     0.0000   0.0000   0.0000   0.0000   0.0000   0.0000   0.0000   0.0000
     0.0000   0.0000   0.0000   0.0000   0.0000   0.0000   0.0000   0.0000
     0.0000   0.0000   0.0000   0.0000   0.0000   0.0000   0.0000   0.0000
     0.0000   0.0000   0.0000   0.0000   0.0000   0.0000   0.0000   0.0000
     0.0000   0.0000   0.0000   0.0000   0.0000   0.0000   0.0000   0.0000
     0.0000   0.0000   0.0000   0.0000   0.0000   0.0000   0.0000   0.0000
     0.0000   0.0000   0.0000   0.0000   0.0000   0.0000   0.0000   0.0000
     0.0000   0.0000   0.0000   0.0000   0.0000   0.0000   0.0000   0.0000
     0.0000   0.0000   0.0000   0.0000   0.0000   0.0000   0.0000   0.0000
     0.0000   0.0000   0.0000   0.0000   0.0000   0.0000   0.0000   0.0000
     0.0000   0.0000   0.0000   0.0000   0.0000   0.0000   0.0000   0.0000
     0.0000   0.0000   0.0000   0.0000   0.0000   0.0000   0.0000   0.0000
     0.0000   0.0000   0.0000   0.0000   0.0000   0.0000   0.0000   0.0000
     0.0000   0.0000   0.0000   0.0000   0.0000   0.0000   0.0000   0.0000
     0.0000   0.0000   0.0000   0.0000   0.0000   0.0000   0.0000   0.0000
     0.0000   0.0000   0.0000   0.0000   0.0000   0.0000   0.0000   0.0000
     0.0000   0.0000   0.0000   0.0000   0.0000   0.0000   0.0000   0.0000
     0.0000   0.0000   0.0000   0.0000   0.0000   0.0000   0.0000   0.0000
     0.0000   0.0000   0.0000   0.0000   0.0000   0.0000   0.0000   0.0000
     0.0000   0.0000   0.0000   0.0000   0.0000   0.0000   0.0000   0.0000
     0.0000   0.0000   0.0000   0.0000   0.0000   0.0000   0.0000   0.0000
     0.0000   0.0000   0.0000   0.0000   0.0000   0.0000   0.0000   0.0000
     0.0000   0.0000   0.0000   0.0000   0.0000   0.0000   0.0000   0.0000
     0.0000   0.0000   0.0000   0.0000   0.0000   0.0000   0.0000   0.0000
     0.0000   0.0000   0.0000   0.0000   0.0000   0.0000   0.0000   0.0000
     0.0000   0.0000   0.0000   0.0000   0.0000   0.0000   0.0000   0.0000
     0.0000   0.0000   0.0000   0.0000   0.0000   0.0000   0.0000   0.0000
     0.0000   0.0000   0.0000   0.0000   0.0000   0.0000   0.0000   0.0000
     0.0000   0.0000   0.0000   0.0000   0.0000   0.0000   0.0000   0.0000
     0.0000   0.0000   0.0000   0.0000   0.0000   0.0000   0.0000   0.0000
     0.0000   0.0000   0.0000   0.0000   0.0000   0.0000   0.0000   0.0000
     0.0000   0.0000   0.0000   0.0000   0.0000   0.0000   0.0000   0.0000
     0.0000   0.0000   0.0000   0.0000   0.0000   0.0000   0.0000   0.0000
     0.0000   0.0000   0.0000   0.0000   0.0000   0.0000   0.0000   0.0000
     0.0000   0.0000   0.0000   0.0000   0.0000   0.0000   0.0000   0.0000
     0.0000   0.0000   0.0000   0.0000   0.0000   0.0000   0.0000   0.0000
     0.0000   0.0000   0.0000   0.0000   0.0000   0.0000   0.0000   0.0000
     0.0000   0.0000   0.0000   0.0000   0.0000   0.0000   0.0000   0.0000
     0.0000   0.0000   0.0000   0.0000   0.0000   0.0000   0.0000   0.0000
     0.0000   0.0000   0.0000   0.0000   0.0000   0.0000   0.0000   0.0000
     0.0000   0.0000   0.0000   0.0000   0.0000   0.0000   0.0000   0.0000
     0.0000   0.0000   0.0000   0.0000   0.0000   0.0000   0.0000   0.0000
     0.0000   0.0000   0.0000   0.0000   0.0000   0.0000   0.0000   0.0000
     0.0000   0.0000   0.0000   0.0000   0.0000   0.0000   0.0000   0.0000
     0.0000   0.0000   0.0000   0.0000   0.0000   0.0000   0.0000   0.0000
     0.0000   0.0000   0.0000   0.0000   0.0000   0.0000   0.0000   0.0000
     0.0000   0.0000   0.0000   0.0000   0.0000   0.0000   0.0000   0.0000
     0.0000   0.0000   0.0000   0.0000   0.0000   0.0000   0.0000   0.0000
     0.0000   0.0000   0.0000   0.0000   0.0000   0.0000   0.0000   0.0000
     0.0000   0.0000   0.0000   0.0000   0.0000   0.0000   0.0000   0.0000
     0.0000   0.0000   0.0000   0.0000   0.0000   0.0000   0.0000   0.0000
     0.0000   0.0000   0.0000   0.0000   0.0000   0.0000   0.0000   0.0000
     0.0000   0.0000   0.0000   0.0000   0.0000   0.0000   0.0000   0.0000
     0.0000   0.0000   0.0000   0.0000   0.0000   0.0000   0.0000   0.0000
     0.0000   0.0000   0.0000   0.0000   0.0000   0.0000   0.0000   0.0000
     0.0000   0.0000   0.0000   0.0000   0.0000   0.0000   0.0000   0.0000
     0.0000   0.0000   0.0000   0.0000   0.0000   0.0000   0.0000   0.0000
     0.0000   0.0000   0.0000   0.0000   0.0000   0.0000   0.0000   0.0000
     0.0000   0.0000   0.0000   0.0000   0.0000   0.0000   0.0000   0.0000
     0.0000   0.0000   0.0000   0.0000   0.0000   0.0000   0.0000   0.0000
     0.0000   0.0000   0.0000   0.0000   0.0000   0.0000   0.0000   0.0000
     0.0000   0.0000   0.0000   0.0000   0.0000   0.0000   0.0000   0.0000
     0.0000   0.0000   0.0000   0.0000   0.0000   0.0000   0.0000   0.0000
     0.0000   0.0000   0.0000   0.0000   0.0000   0.0000   0.0000   0.0000
     0.0000   0.0000   0.0000   0.0000   0.0000   0.0000   0.0000   0.0000
     0.0000   0.0000   0.0000   0.0000   0.0000   0.0000   0.0000   0.0000
     0.0000   0.0000   0.0000   0.0000   0.0000   0.0000   0.0000   0.0000
     0.0000   0.0000   0.0000   0.0000   0.0000   0.0000   0.0000   0.0000
     0.0000   0.0000   0.0000   0.0000   0.0000   0.0000   0.0000   0.0000
     0.0000   0.0000   0.0000   0.0000   0.0000   0.0000   0.0000   0.0000
     0.0000   0.0000   0.0000   0.0000   0.0000   0.0000   0.0000   0.0000
     0.0000   0.0000   0.0000   0.0000   0.0000   0.0000   0.0000   0.0000
     0.0000   0.0000   0.0000   0.0000   0.0000   0.0000   0.0000   0.0000
     0.0000   0.0000   0.0000   0.0000   0.0000   0.0000   0.0000   0.0000
     0.0000   0.0000   0.0000   0.0000   0.0000   0.0000   0.0000   0.0000
     0.0000   0.0000   0.0000   0.0000   0.0000   0.0000   0.0000   0.0000
     0.0000   0.0000   0.0000   0.0000   0.0000   0.0000   0.0000   0.0000
     0.0000   0.0000   0.0000   0.0000   0.0000   0.0000   0.0000   0.0000
     0.0000   0.0000   0.0000   0.0000   0.0000   0.0000   0.0000   0.0000
     0.0000   0.0000   0.0000   0.0000   0.0000   0.0000   0.0000   0.0000
     0.0000   0.0000   0.0000   0.0000   0.0000   0.0000   0.0000   0.0000
     0.0000   0.0000   0.0000   0.0000   0.0000   0.0000   0.0000   0.0000
     0.0000   0.0000   0.0000   0.0000   0.0000   0.0000   0.0000   0.0000
     0.0000   0.0000   0.0000   0.0000   0.0000   0.0000   0.0000   0.0000
     0.0000   0.0000   0.0000   0.0000   0.0000   0.0000   0.0000   0.0000

     the Fermi energy is    10.2895 ev
     (compare with:     9.6092 eV, computed in scf)

     Writing all to output data dir temp/pwscf.save/
 
     init_run     :      3.81s CPU      6.09s WALL (       1 calls)
     electrons    :  10694.14s CPU  10793.54s WALL (       1 calls)

     Called by init_run:
     aceinit0     :      1.64s CPU      3.75s WALL (       1 calls)
     wfcinit      :      0.00s CPU      0.02s WALL (       1 calls)
     wfcinit:atom :      0.08s CPU      0.20s WALL (       4 calls)
     wfcinit:wfcr :     87.16s CPU     89.46s WALL (       4 calls)
     potinit      :      0.52s CPU      0.64s WALL (       1 calls)
     hinit0       :      1.53s CPU      1.55s WALL (       1 calls)

     Called by electrons:
     c_bands      :   5831.95s CPU   5903.15s WALL (       2 calls)
     sum_band     :      1.99s CPU      3.24s WALL (       1 calls)
     v_of_rho     :      0.98s CPU      1.03s WALL (       2 calls)
     v_h          :      0.01s CPU      0.02s WALL (       2 calls)
     v_xc         :      0.96s CPU      1.01s WALL (       2 calls)

     Called by c_bands:
     init_us_2    :      0.20s CPU      0.25s WALL (       6 calls)
     init_us_2:cp :      0.20s CPU      0.25s WALL (       6 calls)
     regterg      :   5737.37s CPU   5802.25s WALL (       6 calls)

     Called by sum_band:
     sum_band:wei :      0.00s CPU      0.00s WALL (       1 calls)
     sum_band:loo :      1.86s CPU      3.09s WALL (       1 calls)
     sum_band:buf :      0.00s CPU      1.22s WALL (       2 calls)
     sum_band:ini :      0.06s CPU      0.07s WALL (       2 calls)

     Called by *egterg:
     rdiaghg      :   4581.85s CPU   4595.52s WALL (     112 calls)
     regterg:over :    136.03s CPU    144.55s WALL (     108 calls)
     regterg:upda :     70.45s CPU     78.44s WALL (     108 calls)
     regterg:last :    149.57s CPU    168.15s WALL (      60 calls)
     h_psi        :    785.64s CPU    794.83s WALL (     118 calls)
     g_psi        :      2.12s CPU      2.27s WALL (     108 calls)

     Called by h_psi:
     h_psi:calbec :    117.52s CPU    118.08s WALL (     118 calls)
     vloc_psi     :    299.16s CPU    301.44s WALL (     118 calls)
     add_vuspsi   :    110.65s CPU    111.48s WALL (     118 calls)

     General routines
     calbec       :    215.92s CPU    216.71s WALL (     238 calls)
     fft          :      0.12s CPU      0.16s WALL (      25 calls)
     ffts         :      0.01s CPU      0.01s WALL (       1 calls)
     fftw         :    242.99s CPU    244.83s WALL (  184932 calls)
     fftc         :   1429.91s CPU   1440.34s WALL ( 1861500 calls)
     fftcw        :      4.78s CPU      4.89s WALL (    5250 calls)
     davcio       :      0.00s CPU      7.03s WALL (      16 calls)
 
     Parallel routines

     EXX routines
     exx_grid     :      0.00s CPU      0.04s WALL (       1 calls)
     exxinit      :     22.18s CPU     23.60s WALL (       1 calls)
     vexx         :   4827.90s CPU   4852.16s WALL (       2 calls)
     matcalc      :     98.69s CPU     98.98s WALL (     120 calls)
     aceupdate    :      4.71s CPU      4.83s WALL (       2 calls)
     vexxace      :    255.61s CPU    260.83s WALL (     118 calls)
     aceinit      :   4837.39s CPU   4861.84s WALL (       2 calls)
 
     PWSCF        :      2h58m CPU      3h 0m WALL

 
   This run was terminated on:  23:21:47  18Jan2025            

=------------------------------------------------------------------------------=
   JOB DONE.
=------------------------------------------------------------------------------=
