
     Program PWSCF v.7.2 starts on 13Jan2025 at 22:18:19 

     This program is part of the open-source Quantum ESPRESSO suite
     for quantum simulation of materials; please cite
         "P. Giannozzi et al., J. Phys.:Condens. Matter 21 395502 (2009);
         "P. Giannozzi et al., J. Phys.:Condens. Matter 29 465901 (2017);
         "P. Giannozzi et al., J. Chem. Phys. 152 154105 (2020);
          URL http://www.quantum-espresso.org", 
     in publications or presentations arising from this work. More details at
     http://www.quantum-espresso.org/quote

     Parallel version (MPI), running on    64 processors

     MPI processes distributed on     8 nodes
     183145 MiB available memory on the printing compute node when the environment starts
 
     Reading input from scf.in
Warning: card &CELL ignored
Warning: card / ignored

     Current dimensions of program PWSCF are:
     Max number of different atomic species (ntypx) = 10
     Max number of k-points (npk) =  40000
     Max angular momentum in pseudopotentials (lmaxx) =  4

     IMPORTANT: XC functional enforced from input :
     Exchange-correlation= HSE
                           (   1   4  12   4   0   0   0)
     EXX-fraction              =        0.25
     Any further DFT definition will be discarded
     Please, verify this is what you really want

     EXX fraction changed:   0.38

     gamma-point specific algorithms are used
 
     band groups division:  nbgrp     =       4
     R & G space division:  proc/nbgrp/npool/nimage =      16
     Subspace diagonalization in iterative solution of the eigenvalue problem:
     a serial algorithm will be used

     EXX: q-point mesh:     1    1    1
     EXX: grid of k+q points same as grid of k-points
 
     Parallelization info
     --------------------
     sticks:   dense  smooth     PW     G-vecs:    dense   smooth      PW
     Min         828     828    206                93060    93060   11626
     Max         831     831    208                93070    93070   11636
     Sum       13273   13273   3319              1489031  1489031  186077
 
     Using Slab Decomposition
 


     bravais-lattice index     =            0
     lattice parameter (alat)  =      24.5558  a.u.
     unit-cell volume          =   15406.2245 (a.u.)^3
     number of atoms/cell      =          191
     number of atomic types    =            3
     number of electrons       =      2482.00
     number of Kohn-Sham states=         1260
     kinetic-energy cutoff     =      80.0000  Ry
     charge density cutoff     =     320.0000  Ry
     cutoff for Fock operator  =     160.0000  Ry
     scf convergence threshold =      1.0E-09
     mixing beta               =       0.4000
     number of iterations used =            8  plain     mixing
     Exchange-correlation= HSE
                           (   1   4  12   4   0   0   0)
     EXX-fraction              =        0.38

     celldm(1)=  24.555771  celldm(2)=   0.000000  celldm(3)=   0.000000
     celldm(4)=   0.000000  celldm(5)=   0.000000  celldm(6)=   0.000000

     crystal axes: (cart. coord. in units of alat)
               a(1) = (   1.000000   0.000000   0.000000 )  
               a(2) = (  -0.500000   0.866025   0.000000 )  
               a(3) = (   0.000000   0.000000   1.201448 )  

     reciprocal axes: (cart. coord. in units 2 pi/alat)
               b(1) = (  1.000000  0.577350  0.000000 )  
               b(2) = (  0.000000  1.154701  0.000000 )  
               b(3) = (  0.000000  0.000000  0.832329 )  


     PseudoPot. # 1 for Zn read from file:
     ~/Pseudopotential/pseudo-ONCV-proj/Zn_ONCV_PBE-1.0.upf
     MD5 check sum: Not computed, couldn't open file
     Pseudo is Norm-conserving, Zval = 20.0
     Generated using ONCVPSP code by D. R. Hamann
     Using radial grid of 1326 points,  6 beta functions with: 
                l(1) =   0
                l(2) =   0
                l(3) =   1
                l(4) =   1
                l(5) =   2
                l(6) =   2

     PseudoPot. # 2 for O  read from file:
     ~/Pseudopotential/pseudo-ONCV-proj/O_ONCV_PBE-1.0.upf
     MD5 check sum: Not computed, couldn't open file
     Pseudo is Norm-conserving, Zval =  6.0
     Generated using ONCVPSP code by D. R. Hamann
     Using radial grid of  936 points,  4 beta functions with: 
                l(1) =   0
                l(2) =   0
                l(3) =   1
                l(4) =   1

     PseudoPot. # 3 for Mo read from file:
     ~/Pseudopotential/pseudo-ONCV-proj/Mo_ONCV_PBE-1.0.upf
     MD5 check sum: Not computed, couldn't open file
     Pseudo is Norm-conserving, Zval = 14.0
     Generated using ONCVPSP code by D. R. Hamann
     Using radial grid of 1526 points,  6 beta functions with: 
                l(1) =   0
                l(2) =   0
                l(3) =   1
                l(4) =   1
                l(5) =   2
                l(6) =   2

     atomic species   valence    mass     pseudopotential
        Zn            20.00    65.39000     Zn( 1.00)
        O              6.00    15.99940     O ( 1.00)
        Mo            14.00    95.94000     Mo( 1.00)

     Starting magnetic structure 
     atomic species   magnetization
        Zn           0.500
        O            0.000
        Mo           0.000

     No symmetry found


                                    s                        frac. trans.

      isym =  1     identity                                     

 cryst.   s( 1) = (     1          0          0      )
                  (     0          1          0      )
                  (     0          0          1      )

 cart.    s( 1) = (  1.0000000  0.0000000  0.0000000 )
                  (  0.0000000  1.0000000  0.0000000 )
                  (  0.0000000  0.0000000  1.0000000 )


   Cartesian axes

     site n.     atom                  positions (alat units)
         1           Zn  tau(   1) = (   0.1248840   0.0722357   0.1987950  )
         2           Zn  tau(   2) = (   0.1250890   0.0721174   0.6004059  )
         3           Zn  tau(   3) = (   0.1247781   0.0722969   1.0016715  )
         4           Zn  tau(   4) = (  -0.0004526   0.2884138   0.1989904  )
         5           Zn  tau(   5) = (  -0.0011980   0.2879835   0.6001881  )
         6           Zn  tau(   6) = (  -0.0002568   0.2885269   1.0016658  )
         7           Zn  tau(   7) = (  -0.1250000   0.5050475   0.1987950  )
         8           Zn  tau(   8) = (  -0.1250000   0.5052841   0.6004059  )
         9           Zn  tau(   9) = (  -0.1250000   0.5049252   1.0016715  )
        10           Zn  tau(  10) = (  -0.2497729   0.7218189   0.1987837  )
        11           Zn  tau(  11) = (  -0.2490655   0.7222273   0.6009698  )
        12           Zn  tau(  12) = (  -0.2497932   0.7218071   1.0018110  )
        13           Zn  tau(  13) = (   0.3750000   0.0719066   0.1987837  )
        14           Zn  tau(  14) = (   0.3750000   0.0710897   0.6009698  )
        15           Zn  tau(  15) = (   0.3750000   0.0719301   1.0018110  )
        16           Zn  tau(  16) = (   0.2489614   0.2878847   0.1992100  )
        17           Zn  tau(  17) = (   0.2435369   0.2832825   0.6032470  )
        18           Zn  tau(  18) = (   0.2506753   0.2891094   1.0013360  )
        19           Zn  tau(  19) = (   0.1237962   0.5046772   0.1992100  )
        20           Zn  tau(  20) = (   0.1170983   0.5022805   0.6032470  )
        21           Zn  tau(  21) = (   0.1257137   0.5055491   1.0013360  )
        22           Zn  tau(  22) = (  -0.0002270   0.7218189   0.1987837  )
        23           Zn  tau(  23) = (  -0.0009344   0.7222273   0.6009698  )
        24           Zn  tau(  24) = (  -0.0002066   0.7218071   1.0018110  )
        25           Zn  tau(  25) = (   0.6251160   0.0722357   0.1987950  )
        26           Zn  tau(  26) = (   0.6249111   0.0721174   0.6004059  )
        27           Zn  tau(  27) = (   0.6252220   0.0722969   1.0016715  )
        28           Zn  tau(  28) = (   0.5010386   0.2878847   0.1992100  )
        29           Zn  tau(  29) = (   0.5064631   0.2832825   0.6032470  )
        30           Zn  tau(  30) = (   0.4993248   0.2891094   1.0013360  )
        31           Zn  tau(  31) = (   0.3750001   0.5051814   0.2004931  )
        32           Zn  tau(  32) = (   0.3750001   0.5051814   1.0031665  )
        33           Zn  tau(  33) = (   0.2498348   0.7229824   0.1992100  )
        34           Zn  tau(  34) = (   0.2485614   0.7299813   0.6032470  )
        35           Zn  tau(  35) = (   0.2500385   0.7208859   1.0013360  )
        36           Zn  tau(  36) = (   0.8750000   0.0726914   0.1989904  )
        37           Zn  tau(  37) = (   0.8750000   0.0735521   0.6001881  )
        38           Zn  tau(  38) = (   0.8750000   0.0724653   1.0016658  )
        39           Zn  tau(  39) = (   0.7504526   0.2884138   0.1989904  )
        40           Zn  tau(  40) = (   0.7511980   0.2879835   0.6001881  )
        41           Zn  tau(  41) = (   0.7502568   0.2885269   1.0016658  )
        42           Zn  tau(  42) = (   0.6262039   0.5046772   0.1992100  )
        43           Zn  tau(  43) = (   0.6329018   0.5022805   0.6032470  )
        44           Zn  tau(  44) = (   0.6242864   0.5055491   1.0013360  )
        45           Zn  tau(  45) = (   0.5001653   0.7229824   0.1992100  )
        46           Zn  tau(  46) = (   0.5014387   0.7299813   0.6032470  )
        47           Zn  tau(  47) = (   0.4999616   0.7208859   1.0013360  )
        48           Zn  tau(  48) = (  -0.0000245   0.1443517   1.2011361  )
        49           Zn  tau(  49) = (  -0.0000684   0.1443771   0.3990909  )
        50           Zn  tau(  50) = (  -0.0001009   0.1443958   0.8011350  )
        51           Zn  tau(  51) = (  -0.1250000   0.3608156   1.2011361  )
        52           Zn  tau(  52) = (  -0.1250000   0.3607649   0.3990909  )
        53           Zn  tau(  53) = (  -0.1250000   0.3607274   0.8011350  )
        54           Zn  tau(  54) = (  -0.2500072   0.5773395   1.2010265  )
        55           Zn  tau(  55) = (  -0.2486634   0.5780181   0.3986418  )
        56           Zn  tau(  56) = (  -0.2494406   0.5778324   0.8024030  )
        57           Zn  tau(  57) = (  -0.3750129   0.7938557   1.2010265  )
        58           Zn  tau(  58) = (  -0.3737533   0.7946802   0.3986418  )
        59           Zn  tau(  59) = (  -0.3743028   0.7940999   0.8024030  )
        60           Zn  tau(  60) = (   0.2499943   0.1443492   1.2010265  )
        61           Zn  tau(  61) = (   0.2499101   0.1428461   0.3986418  )
        62           Zn  tau(  62) = (   0.2501379   0.1436121   0.8024030  )
        63           Zn  tau(  63) = (   0.1250071   0.3608480   1.2010352  )
        64           Zn  tau(  64) = (   0.1237059   0.3600968   0.3990543  )
        65           Zn  tau(  65) = (   0.1241012   0.3603250   0.8032345  )
        66           Zn  tau(  66) = (   0.0000073   0.5773395   1.2010265  )
        67           Zn  tau(  67) = (  -0.0013366   0.5780181   0.3986418  )
        68           Zn  tau(  68) = (  -0.0005593   0.5778324   0.8024030  )
        69           Zn  tau(  69) = (  -0.1250000   0.7938566   1.2010657  )
        70           Zn  tau(  70) = (  -0.1250000   0.7938566   0.3990225  )
        71           Zn  tau(  71) = (  -0.1250000   0.7938566   0.8013708  )
        72           Zn  tau(  72) = (   0.5000057   0.1443492   1.2010265  )
        73           Zn  tau(  73) = (   0.5000899   0.1428461   0.3986418  )
        74           Zn  tau(  74) = (   0.4998621   0.1436121   0.8024030  )
        75           Zn  tau(  75) = (   0.3750000   0.3607172   0.0016607  )
        76           Zn  tau(  76) = (   0.3750000   0.3579017   0.3927764  )
        77           Zn  tau(  77) = (   0.3750000   0.3630743   0.7984601  )
        78           Zn  tau(  78) = (   0.2498902   0.5774136   0.0016607  )
        79           Zn  tau(  79) = (   0.2474519   0.5788214   0.3927764  )
        80           Zn  tau(  80) = (   0.2519316   0.5762350   0.7984601  )
        81           Zn  tau(  81) = (   0.1250129   0.7938557   1.2010265  )
        82           Zn  tau(  82) = (   0.1237533   0.7946802   0.3986418  )
        83           Zn  tau(  83) = (   0.1243028   0.7940999   0.8024030  )
        84           Zn  tau(  84) = (   0.7500245   0.1443517   1.2011361  )
        85           Zn  tau(  85) = (   0.7500684   0.1443771   0.3990909  )
        86           Zn  tau(  86) = (   0.7501009   0.1443958   0.8011350  )
        87           Zn  tau(  87) = (   0.6249929   0.3608480   1.2010352  )
        88           Zn  tau(  88) = (   0.6262941   0.3600968   0.3990543  )
        89           Zn  tau(  89) = (   0.6258988   0.3603250   0.8032345  )
        90           Zn  tau(  90) = (   0.5001097   0.5774136   0.0016607  )
        91           Zn  tau(  91) = (   0.5025481   0.5788214   0.3927764  )
        92           Zn  tau(  92) = (   0.4980684   0.5762350   0.7984601  )
        93           Zn  tau(  93) = (   0.3750000   0.7938484   1.2010352  )
        94           Zn  tau(  94) = (   0.3750000   0.7953508   0.3990543  )
        95           Zn  tau(  95) = (   0.3750000   0.7948944   0.8032345  )
        96           O   tau(  96) = (   0.1247958   0.0722867   0.3521688  )
        97           O   tau(  97) = (   0.1251920   0.0720579   0.7526373  )
        98           O   tau(  98) = (   0.1250104   0.0721628   1.1539232  )
        99           O   tau(  99) = (  -0.0001343   0.2885976   0.3523886  )
       100           O   tau( 100) = (   0.0004021   0.2889073   0.7523657  )
       101           O   tau( 101) = (   0.0001635   0.2887695   1.1539378  )
       102           O   tau( 102) = (  -0.1250000   0.5049456   0.3521688  )
       103           O   tau( 103) = (  -0.1250000   0.5054031   0.7526373  )
       104           O   tau( 104) = (  -0.1250000   0.5051935   1.1539232  )
       105           O   tau( 105) = (  -0.2499963   0.7216899   0.3521196  )
       106           O   tau( 106) = (  -0.2502929   0.7215186   0.7530099  )
       107           O   tau( 107) = (  -0.2500820   0.7216404   1.1539780  )
       108           O   tau( 108) = (   0.3750000   0.0721646   0.3521196  )
       109           O   tau( 109) = (   0.3750000   0.0725071   0.7530099  )
       110           O   tau( 110) = (   0.3750000   0.0722635   1.1539780  )
       111           O   tau( 111) = (   0.2497225   0.2885482   0.3539584  )
       112           O   tau( 112) = (   0.2506663   0.2899646   0.7533174  )
       113           O   tau( 113) = (   0.2507022   0.2892056   1.1537912  )
       114           O   tau( 114) = (   0.1247514   0.5050046   0.3539584  )
       115           O   tau( 115) = (   0.1264499   0.5051137   0.7533174  )
       116           O   tau( 116) = (   0.1258105   0.5055243   1.1537912  )
       117           O   tau( 117) = (  -0.0000036   0.7216899   0.3521196  )
       118           O   tau( 118) = (   0.0002930   0.7215186   0.7530099  )
       119           O   tau( 119) = (   0.0000821   0.7216404   1.1539780  )
       120           O   tau( 120) = (   0.6252042   0.0722867   0.3521688  )
       121           O   tau( 121) = (   0.6248080   0.0720579   0.7526373  )
       122           O   tau( 122) = (   0.6249896   0.0721628   1.1539232  )
       123           O   tau( 123) = (   0.5002775   0.2885482   0.3539584  )
       124           O   tau( 124) = (   0.4993338   0.2899646   0.7533174  )
       125           O   tau( 125) = (   0.4992979   0.2892056   1.1537912  )
       126           O   tau( 126) = (   0.3750001   0.5051814   0.3594347  )
       127           O   tau( 127) = (   0.3750001   0.5051814   1.1548646  )
       128           O   tau( 128) = (   0.2500289   0.7219915   0.3539584  )
       129           O   tau( 129) = (   0.2507837   0.7204660   0.7533174  )
       130           O   tau( 130) = (   0.2501084   0.7208144   1.1537912  )
       131           O   tau( 131) = (   0.8750000   0.0723239   0.3523886  )
       132           O   tau( 132) = (   0.8750000   0.0717045   0.7523657  )
       133           O   tau( 133) = (   0.8750000   0.0719800   1.1539378  )
       134           O   tau( 134) = (   0.7501343   0.2885976   0.3523886  )
       135           O   tau( 135) = (   0.7495979   0.2889073   0.7523657  )
       136           O   tau( 136) = (   0.7498365   0.2887695   1.1539378  )
       137           O   tau( 137) = (   0.6252487   0.5050046   0.3539584  )
       138           O   tau( 138) = (   0.6235502   0.5051137   0.7533174  )
       139           O   tau( 139) = (   0.6241896   0.5055243   1.1537912  )
       140           O   tau( 140) = (   0.4999713   0.7219915   0.3539584  )
       141           O   tau( 141) = (   0.4992164   0.7204660   0.7533174  )
       142           O   tau( 142) = (   0.4998917   0.7208144   1.1537912  )
       143           O   tau( 143) = (   0.0000260   0.1443226   0.1524675  )
       144           O   tau( 144) = (   0.0004524   0.1440764   0.5523136  )
       145           O   tau( 145) = (  -0.0000083   0.1443424   0.9531247  )
       146           O   tau( 146) = (  -0.1250000   0.3608739   0.1524675  )
       147           O   tau( 147) = (  -0.1250000   0.3613663   0.5523136  )
       148           O   tau( 148) = (  -0.1250000   0.3608343   0.9531247  )
       149           O   tau( 149) = (  -0.2500961   0.5773104   0.1525949  )
       150           O   tau( 150) = (  -0.2500544   0.5780127   0.5520186  )
       151           O   tau( 151) = (  -0.2504230   0.5772322   0.9538437  )
       152           O   tau( 152) = (  -0.3750825   0.7937933   0.1525949  )
       153           O   tau( 153) = (  -0.3744535   0.7934782   0.5520186  )
       154           O   tau( 154) = (  -0.3753137   0.7935493   0.9538437  )
       155           O   tau( 155) = (   0.2500135   0.1444407   0.1525949  )
       156           O   tau( 156) = (   0.2506009   0.1440535   0.5520186  )
       157           O   tau( 157) = (   0.2501093   0.1447629   0.9538437  )
       158           O   tau( 158) = (   0.1250035   0.3608459   0.1528834  )
       159           O   tau( 159) = (   0.1257103   0.3612540   0.5526041  )
       160           O   tau( 160) = (   0.1252805   0.3610058   0.9542483  )
       161           O   tau( 161) = (   0.0000961   0.5773104   0.1525949  )
       162           O   tau( 162) = (   0.0000545   0.5780127   0.5520186  )
       163           O   tau( 163) = (   0.0004230   0.5772322   0.9538437  )
       164           O   tau( 164) = (  -0.1250000   0.7938566   0.1523509  )
       165           O   tau( 165) = (  -0.1250000   0.7938566   0.5521011  )
       166           O   tau( 166) = (  -0.1250000   0.7938566   0.9533347  )
       167           O   tau( 167) = (   0.4999865   0.1444407   0.1525949  )
       168           O   tau( 168) = (   0.4993991   0.1440535   0.5520186  )
       169           O   tau( 169) = (   0.4998907   0.1447629   0.9538437  )
       170           O   tau( 170) = (   0.3750000   0.3611225   0.1556514  )
       171           O   tau( 171) = (   0.3750000   0.3650827   0.5588865  )
       172           O   tau( 172) = (   0.3750000   0.3627542   0.9492347  )
       173           O   tau( 173) = (   0.2502413   0.5772110   0.1556514  )
       174           O   tau( 174) = (   0.2536709   0.5752309   0.5588865  )
       175           O   tau( 175) = (   0.2516544   0.5763951   0.9492347  )
       176           O   tau( 176) = (   0.1250826   0.7937933   0.1525949  )
       177           O   tau( 177) = (   0.1244535   0.7934782   0.5520186  )
       178           O   tau( 178) = (   0.1253137   0.7935493   0.9538437  )
       179           O   tau( 179) = (   0.7499740   0.1443226   0.1524675  )
       180           O   tau( 180) = (   0.7495476   0.1440764   0.5523136  )
       181           O   tau( 181) = (   0.7500083   0.1443424   0.9531247  )
       182           O   tau( 182) = (   0.6249965   0.3608459   0.1528834  )
       183           O   tau( 183) = (   0.6242897   0.3612540   0.5526041  )
       184           O   tau( 184) = (   0.6247195   0.3610058   0.9542483  )
       185           O   tau( 185) = (   0.4997587   0.5772110   0.1556514  )
       186           O   tau( 186) = (   0.4963291   0.5752309   0.5588865  )
       187           O   tau( 187) = (   0.4983456   0.5763951   0.9492347  )
       188           O   tau( 188) = (   0.3750000   0.7938525   0.1528834  )
       189           O   tau( 189) = (   0.3750000   0.7930364   0.5526041  )
       190           O   tau( 190) = (   0.3750000   0.7935328   0.9542483  )
       191           Mo  tau( 191) = (   0.3750001   0.5051814   0.5974195  )

   Crystallographic axes

     site n.     atom                  positions (cryst. coord.)
         1           Zn  tau(   1) = (  0.1665894  0.0834106  0.1654629  )
         2           Zn  tau(   2) = (  0.1667260  0.0832740  0.4997353  )
         3           Zn  tau(   3) = (  0.1665187  0.0834813  0.8337203  )
         4           Zn  tau(   4) = (  0.1660632  0.3330316  0.1656255  )
         5           Zn  tau(   5) = (  0.1650694  0.3325347  0.4995540  )
         6           Zn  tau(   6) = (  0.1663243  0.3331621  0.8337156  )
         7           Zn  tau(   7) = (  0.1665894  0.5831787  0.1654629  )
         8           Zn  tau(   8) = (  0.1667260  0.5834519  0.4997353  )
         9           Zn  tau(   9) = (  0.1665187  0.5830374  0.8337203  )
        10           Zn  tau(  10) = (  0.1669694  0.8334847  0.1654534  )
        11           Zn  tau(  11) = (  0.1679126  0.8339563  0.5002046  )
        12           Zn  tau(  12) = (  0.1669423  0.8334711  0.8338365  )
        13           Zn  tau(  13) = (  0.4165153  0.0830306  0.1654534  )
        14           Zn  tau(  14) = (  0.4160437  0.0820874  0.5002046  )
        15           Zn  tau(  15) = (  0.4165289  0.0830577  0.8338365  )
        16           Zn  tau(  16) = (  0.4151717  0.3324206  0.1658083  )
        17           Zn  tau(  17) = (  0.4070902  0.3271065  0.5021000  )
        18           Zn  tau(  18) = (  0.4175926  0.3338348  0.8334411  )
        19           Zn  tau(  19) = (  0.4151717  0.5827510  0.1658083  )
        20           Zn  tau(  20) = (  0.4070902  0.5799837  0.5021000  )
        21           Zn  tau(  21) = (  0.4175926  0.5837578  0.8334411  )
        22           Zn  tau(  22) = (  0.4165153  0.8334847  0.1654534  )
        23           Zn  tau(  23) = (  0.4160437  0.8339563  0.5002046  )
        24           Zn  tau(  24) = (  0.4165289  0.8334711  0.8338365  )
        25           Zn  tau(  25) = (  0.6668213  0.0834106  0.1654629  )
        26           Zn  tau(  26) = (  0.6665481  0.0832740  0.4997353  )
        27           Zn  tau(  27) = (  0.6669626  0.0834813  0.8337203  )
        28           Zn  tau(  28) = (  0.6672490  0.3324206  0.1658083  )
        29           Zn  tau(  29) = (  0.6700163  0.3271065  0.5021000  )
        30           Zn  tau(  30) = (  0.6662422  0.3338348  0.8334411  )
        31           Zn  tau(  31) = (  0.6666667  0.5833333  0.1668763  )
        32           Zn  tau(  32) = (  0.6666667  0.5833333  0.8349646  )
        33           Zn  tau(  33) = (  0.6672490  0.8348283  0.1658083  )
        34           Zn  tau(  34) = (  0.6700163  0.8429098  0.5021000  )
        35           Zn  tau(  35) = (  0.6662422  0.8324074  0.8334411  )
        36           Zn  tau(  36) = (  0.9169684  0.0839368  0.1656255  )
        37           Zn  tau(  37) = (  0.9174653  0.0849307  0.4995540  )
        38           Zn  tau(  38) = (  0.9168379  0.0836757  0.8337156  )
        39           Zn  tau(  39) = (  0.9169684  0.3330316  0.1656255  )
        40           Zn  tau(  40) = (  0.9174653  0.3325347  0.4995540  )
        41           Zn  tau(  41) = (  0.9168379  0.3331621  0.8337156  )
        42           Zn  tau(  42) = (  0.9175794  0.5827510  0.1658083  )
        43           Zn  tau(  43) = (  0.9228936  0.5799837  0.5021000  )
        44           Zn  tau(  44) = (  0.9161653  0.5837578  0.8334411  )
        45           Zn  tau(  45) = (  0.9175794  0.8348283  0.1658083  )
        46           Zn  tau(  46) = (  0.9228936  0.8429098  0.5021000  )
        47           Zn  tau(  47) = (  0.9161653  0.8324074  0.8334411  )
        48           Zn  tau(  48) = (  0.0833170  0.1666830  0.9997405  )
        49           Zn  tau(  49) = (  0.0832877  0.1667123  0.3321750  )
        50           Zn  tau(  50) = (  0.0832661  0.1667339  0.6668080  )
        51           Zn  tau(  51) = (  0.0833170  0.4166340  0.9997405  )
        52           Zn  tau(  52) = (  0.0832877  0.4165755  0.3321750  )
        53           Zn  tau(  53) = (  0.0832661  0.4165321  0.6668080  )
        54           Zn  tau(  54) = (  0.0833199  0.6666543  0.9996493  )
        55           Zn  tau(  55) = (  0.0850555  0.6674379  0.3318011  )
        56           Zn  tau(  56) = (  0.0841710  0.6672234  0.6678634  )
        57           Zn  tau(  57) = (  0.0833199  0.9166657  0.9996493  )
        58           Zn  tau(  58) = (  0.0850555  0.9176177  0.3318011  )
        59           Zn  tau(  59) = (  0.0841710  0.9169477  0.6678634  )
        60           Zn  tau(  60) = (  0.3333344  0.1666801  0.9996493  )
        61           Zn  tau(  61) = (  0.3323823  0.1649445  0.3318011  )
        62           Zn  tau(  62) = (  0.3330523  0.1658290  0.6678634  )
        63           Zn  tau(  63) = (  0.3333428  0.4166714  0.9996566  )
        64           Zn  tau(  64) = (  0.3316079  0.4158040  0.3321445  )
        65           Zn  tau(  65) = (  0.3321349  0.4160675  0.6685555  )
        66           Zn  tau(  66) = (  0.3333344  0.6666543  0.9996493  )
        67           Zn  tau(  67) = (  0.3323823  0.6674379  0.3318011  )
        68           Zn  tau(  68) = (  0.3330523  0.6672234  0.6678634  )
        69           Zn  tau(  69) = (  0.3333333  0.9166667  0.9996819  )
        70           Zn  tau(  70) = (  0.3333333  0.9166667  0.3321181  )
        71           Zn  tau(  71) = (  0.3333333  0.9166667  0.6670043  )
        72           Zn  tau(  72) = (  0.5833457  0.1666801  0.9996493  )
        73           Zn  tau(  73) = (  0.5825621  0.1649445  0.3318011  )
        74           Zn  tau(  74) = (  0.5827766  0.1658290  0.6678634  )
        75           Zn  tau(  75) = (  0.5832601  0.4165204  0.0013823  )
        76           Zn  tau(  76) = (  0.5816346  0.4132693  0.3269192  )
        77           Zn  tau(  77) = (  0.5846211  0.4192422  0.6645816  )
        78           Zn  tau(  78) = (  0.5832601  0.6667399  0.0013823  )
        79           Zn  tau(  79) = (  0.5816346  0.6683654  0.3269192  )
        80           Zn  tau(  80) = (  0.5846211  0.6653789  0.6645816  )
        81           Zn  tau(  81) = (  0.5833457  0.9166657  0.9996493  )
        82           Zn  tau(  82) = (  0.5825621  0.9176177  0.3318011  )
        83           Zn  tau(  83) = (  0.5827766  0.9169477  0.6678634  )
        84           Zn  tau(  84) = (  0.8333660  0.1666830  0.9997405  )
        85           Zn  tau(  85) = (  0.8334245  0.1667123  0.3321750  )
        86           Zn  tau(  86) = (  0.8334679  0.1667339  0.6668080  )
        87           Zn  tau(  87) = (  0.8333286  0.4166714  0.9996566  )
        88           Zn  tau(  88) = (  0.8341960  0.4158040  0.3321445  )
        89           Zn  tau(  89) = (  0.8339325  0.4160675  0.6685555  )
        90           Zn  tau(  90) = (  0.8334796  0.6667399  0.0013823  )
        91           Zn  tau(  91) = (  0.8367307  0.6683654  0.3269192  )
        92           Zn  tau(  92) = (  0.8307578  0.6653789  0.6645816  )
        93           Zn  tau(  93) = (  0.8333286  0.9166573  0.9996566  )
        94           Zn  tau(  94) = (  0.8341960  0.9183921  0.3321445  )
        95           Zn  tau(  95) = (  0.8339325  0.9178651  0.6685555  )
        96           O   tau(  96) = (  0.1665305  0.0834695  0.2931203  )
        97           O   tau(  97) = (  0.1667947  0.0832053  0.6264419  )
        98           O   tau(  98) = (  0.1666736  0.0833264  0.9604439  )
        99           O   tau(  99) = (  0.1664876  0.3332438  0.2933033  )
       100           O   tau( 100) = (  0.1672028  0.3336014  0.6262158  )
       101           O   tau( 101) = (  0.1668847  0.3334424  0.9604560  )
       102           O   tau( 102) = (  0.1665305  0.5830610  0.2931203  )
       103           O   tau( 103) = (  0.1667947  0.5835893  0.6264419  )
       104           O   tau( 104) = (  0.1666736  0.5833472  0.9604439  )
       105           O   tau( 105) = (  0.1666715  0.8333357  0.2930794  )
       106           O   tau( 106) = (  0.1662761  0.8331380  0.6267521  )
       107           O   tau( 107) = (  0.1665573  0.8332786  0.9604895  )
       108           O   tau( 108) = (  0.4166643  0.0833285  0.2930794  )
       109           O   tau( 109) = (  0.4168620  0.0837239  0.6267521  )
       110           O   tau( 110) = (  0.4167214  0.0834427  0.9604895  )
       111           O   tau( 111) = (  0.4163159  0.3331868  0.2946099  )
       112           O   tau( 112) = (  0.4180774  0.3348223  0.6270080  )
       113           O   tau( 113) = (  0.4176751  0.3339459  0.9603340  )
       114           O   tau( 114) = (  0.4163159  0.5831291  0.2946099  )
       115           O   tau( 115) = (  0.4180774  0.5832551  0.6270080  )
       116           O   tau( 116) = (  0.4176751  0.5837292  0.9603340  )
       117           O   tau( 117) = (  0.4166643  0.8333357  0.2930794  )
       118           O   tau( 118) = (  0.4168620  0.8331380  0.6267521  )
       119           O   tau( 119) = (  0.4167214  0.8332786  0.9604895  )
       120           O   tau( 120) = (  0.6669390  0.0834695  0.2931203  )
       121           O   tau( 121) = (  0.6664107  0.0832053  0.6264419  )
       122           O   tau( 122) = (  0.6666528  0.0833264  0.9604439  )
       123           O   tau( 123) = (  0.6668709  0.3331868  0.2946099  )
       124           O   tau( 124) = (  0.6667449  0.3348223  0.6270080  )
       125           O   tau( 125) = (  0.6662708  0.3339459  0.9603340  )
       126           O   tau( 126) = (  0.6666667  0.5833333  0.2991679  )
       127           O   tau( 127) = (  0.6666667  0.5833333  0.9612274  )
       128           O   tau( 128) = (  0.6668709  0.8336841  0.2946099  )
       129           O   tau( 129) = (  0.6667449  0.8319226  0.6270080  )
       130           O   tau( 130) = (  0.6662708  0.8323249  0.9603340  )
       131           O   tau( 131) = (  0.9167562  0.0835124  0.2933033  )
       132           O   tau( 132) = (  0.9163986  0.0827972  0.6262158  )
       133           O   tau( 133) = (  0.9165577  0.0831153  0.9604560  )
       134           O   tau( 134) = (  0.9167562  0.3332438  0.2933033  )
       135           O   tau( 135) = (  0.9163986  0.3336014  0.6262158  )
       136           O   tau( 136) = (  0.9165577  0.3334424  0.9604560  )
       137           O   tau( 137) = (  0.9168133  0.5831291  0.2946099  )
       138           O   tau( 138) = (  0.9151777  0.5832551  0.6270080  )
       139           O   tau( 139) = (  0.9160541  0.5837292  0.9603340  )
       140           O   tau( 140) = (  0.9168133  0.8336841  0.2946099  )
       141           O   tau( 141) = (  0.9151777  0.8319226  0.6270080  )
       142           O   tau( 142) = (  0.9160541  0.8323249  0.9603340  )
       143           O   tau( 143) = (  0.0833507  0.1666493  0.1269032  )
       144           O   tau( 144) = (  0.0836349  0.1663651  0.4597067  )
       145           O   tau( 145) = (  0.0833278  0.1666722  0.7933135  )
       146           O   tau( 146) = (  0.0833507  0.4167014  0.1269032  )
       147           O   tau( 147) = (  0.0836349  0.4172699  0.4597067  )
       148           O   tau( 148) = (  0.0833278  0.4166556  0.7933135  )
       149           O   tau( 149) = (  0.0832143  0.6666207  0.1270091  )
       150           O   tau( 150) = (  0.0836613  0.6674316  0.4594612  )
       151           O   tau( 151) = (  0.0828422  0.6665304  0.7939119  )
       152           O   tau( 152) = (  0.0832143  0.9165936  0.1270091  )
       153           O   tau( 153) = (  0.0836613  0.9162298  0.4594612  )
       154           O   tau( 154) = (  0.0828422  0.9163118  0.7939119  )
       155           O   tau( 155) = (  0.3334064  0.1667858  0.1270091  )
       156           O   tau( 156) = (  0.3337703  0.1663387  0.4594612  )
       157           O   tau( 157) = (  0.3336882  0.1671578  0.7939119  )
       158           O   tau( 158) = (  0.3333380  0.4166690  0.1272493  )
       159           O   tau( 159) = (  0.3342804  0.4171402  0.4599485  )
       160           O   tau( 160) = (  0.3337073  0.4168536  0.7942486  )
       161           O   tau( 161) = (  0.3334064  0.6666207  0.1270091  )
       162           O   tau( 162) = (  0.3337703  0.6674316  0.4594612  )
       163           O   tau( 163) = (  0.3336882  0.6665304  0.7939119  )
       164           O   tau( 164) = (  0.3333333  0.9166667  0.1268061  )
       165           O   tau( 165) = (  0.3333333  0.9166667  0.4595298  )
       166           O   tau( 166) = (  0.3333333  0.9166667  0.7934882  )
       167           O   tau( 167) = (  0.5833793  0.1667858  0.1270091  )
       168           O   tau( 168) = (  0.5825684  0.1663387  0.4594612  )
       169           O   tau( 169) = (  0.5834696  0.1671578  0.7939119  )
       170           O   tau( 170) = (  0.5834942  0.4169884  0.1295532  )
       171           O   tau( 171) = (  0.5857806  0.4215612  0.4651775  )
       172           O   tau( 172) = (  0.5844362  0.4188725  0.7900757  )
       173           O   tau( 173) = (  0.5834942  0.6665058  0.1295532  )
       174           O   tau( 174) = (  0.5857806  0.6642194  0.4651775  )
       175           O   tau( 175) = (  0.5844362  0.6655638  0.7900757  )
       176           O   tau( 176) = (  0.5833793  0.9165936  0.1270091  )
       177           O   tau( 177) = (  0.5825684  0.9162298  0.4594612  )
       178           O   tau( 178) = (  0.5834696  0.9163118  0.7939119  )
       179           O   tau( 179) = (  0.8332986  0.1666493  0.1269032  )
       180           O   tau( 180) = (  0.8327301  0.1663651  0.4597067  )
       181           O   tau( 181) = (  0.8333444  0.1666722  0.7933135  )
       182           O   tau( 182) = (  0.8333310  0.4166690  0.1272493  )
       183           O   tau( 183) = (  0.8328598  0.4171402  0.4599485  )
       184           O   tau( 184) = (  0.8331464  0.4168536  0.7942486  )
       185           O   tau( 185) = (  0.8330116  0.6665058  0.1295532  )
       186           O   tau( 186) = (  0.8284388  0.6642194  0.4651775  )
       187           O   tau( 187) = (  0.8311275  0.6655638  0.7900757  )
       188           O   tau( 188) = (  0.8333310  0.9166620  0.1272493  )
       189           O   tau( 189) = (  0.8328598  0.9157196  0.4599485  )
       190           O   tau( 190) = (  0.8331464  0.9162928  0.7942486  )
       191           Mo  tau( 191) = (  0.6666667  0.5833333  0.4972496  )

     number of k points=     1  Gaussian smearing, width (Ry)=  0.0001
                       cart. coord. in units 2pi/alat
        k(    1) = (   0.0000000   0.0000000   0.0000000), wk =   1.0000000

                       cryst. coord.
        k(    1) = (   0.0000000   0.0000000   0.0000000), wk =   1.0000000

     Dense  grid:   744516 G-vectors     FFT dimensions: ( 144, 144, 180)

     Dynamical RAM for                 wfc:     111.84 MB

     Dynamical RAM for     wfc (w. buffer):     335.51 MB

     Dynamical RAM for                 EXX:     574.17 MB

     Dynamical RAM for           str. fact:       2.13 MB

     Dynamical RAM for           local pot:       0.00 MB

     Dynamical RAM for          nlocal pot:     220.84 MB

     Dynamical RAM for                qrad:       4.31 MB

     Dynamical RAM for          rho,v,vnew:      15.65 MB

     Dynamical RAM for               rhoin:       5.22 MB

     Dynamical RAM for            rho*nmix:      22.72 MB

     Dynamical RAM for           G-vectors:       3.02 MB

     Dynamical RAM for          h,s,v(r/c):     145.35 MB

     Dynamical RAM for          <psi|beta>:      23.92 MB

     Dynamical RAM for                 psi:     223.68 MB

     Dynamical RAM for                hpsi:     223.68 MB

     Dynamical RAM for      wfcinit/wfcrot:     278.99 MB

     Estimated static dynamical RAM per process >       1.15 GB

     Estimated max dynamical RAM per process >       1.77 GB

     Estimated total dynamical RAM >     113.40 GB
     EXX: ACE will be initialized later
     Generating pointlists ...
     new r_m :   0.0612 (alat units)  1.5028 (a.u.) for type    1
     new r_m :   0.0599 (alat units)  1.4718 (a.u.) for type    2
     new r_m :   0.0599 (alat units)  1.4718 (a.u.) for type    3

     Initial potential from superposition of free atoms

     starting charge    2483.9859, renormalised to    2482.0000
     Starting wfcs are 1340 randomized atomic wfcs

     total cpu time spent up to now is       10.9 secs

     Self-consistent Calculation

     iteration #  1     ecut=    80.00 Ry     beta= 0.40
     Davidson diagonalization with overlap

---- Real-time Memory Report at c_bands before calling an iterative solver
           930 MiB given to the printing process from OS
             0 MiB allocation reported by mallinfo(arena+hblkhd)
        177847 MiB available memory on the node where the printing process lives
------------------
     ethr =  1.00E-02,  avg # of iterations =  2.0

     total cpu time spent up to now is       38.8 secs

     total energy              =  -41128.05633671 Ry
     estimated scf accuracy    <     309.32792604 Ry

     total magnetization       =    38.00 Bohr mag/cell
     absolute magnetization    =    64.73 Bohr mag/cell

     iteration #  2     ecut=    80.00 Ry     beta= 0.40
     Davidson diagonalization with overlap

---- Real-time Memory Report at c_bands before calling an iterative solver
          1366 MiB given to the printing process from OS
             0 MiB allocation reported by mallinfo(arena+hblkhd)
        179459 MiB available memory on the node where the printing process lives
------------------
     ethr =  1.00E-02,  avg # of iterations =  3.5

     total cpu time spent up to now is       70.8 secs

     total energy              =  -41185.20127782 Ry
     estimated scf accuracy    <     122.83679182 Ry

     total magnetization       =     2.00 Bohr mag/cell
     absolute magnetization    =    41.71 Bohr mag/cell

     iteration #  3     ecut=    80.00 Ry     beta= 0.40
     Davidson diagonalization with overlap

---- Real-time Memory Report at c_bands before calling an iterative solver
          1395 MiB given to the printing process from OS
             0 MiB allocation reported by mallinfo(arena+hblkhd)
        179488 MiB available memory on the node where the printing process lives
------------------
     ethr =  4.95E-03,  avg # of iterations =  6.0

     total cpu time spent up to now is      111.3 secs

     total energy              =  -41178.66799410 Ry
     estimated scf accuracy    <     135.28097106 Ry

     total magnetization       =    16.00 Bohr mag/cell
     absolute magnetization    =    34.70 Bohr mag/cell

     iteration #  4     ecut=    80.00 Ry     beta= 0.40
     Davidson diagonalization with overlap

---- Real-time Memory Report at c_bands before calling an iterative solver
          1410 MiB given to the printing process from OS
             0 MiB allocation reported by mallinfo(arena+hblkhd)
        179430 MiB available memory on the node where the printing process lives
------------------
     ethr =  4.95E-03,  avg # of iterations =  7.5

     total cpu time spent up to now is      158.7 secs

     total energy              =  -41170.49482556 Ry
     estimated scf accuracy    <     397.93620717 Ry

     total magnetization       =    22.00 Bohr mag/cell
     absolute magnetization    =    33.01 Bohr mag/cell

     iteration #  5     ecut=    80.00 Ry     beta= 0.40
     Davidson diagonalization with overlap

---- Real-time Memory Report at c_bands before calling an iterative solver
          1417 MiB given to the printing process from OS
             0 MiB allocation reported by mallinfo(arena+hblkhd)
        179423 MiB available memory on the node where the printing process lives
------------------
     ethr =  4.95E-03,  avg # of iterations =  6.0

     total cpu time spent up to now is      201.3 secs

     total energy              =  -41209.47797628 Ry
     estimated scf accuracy    <      30.21676855 Ry

     total magnetization       =     4.00 Bohr mag/cell
     absolute magnetization    =    11.33 Bohr mag/cell

     iteration #  6     ecut=    80.00 Ry     beta= 0.40
     Davidson diagonalization with overlap

---- Real-time Memory Report at c_bands before calling an iterative solver
          1423 MiB given to the printing process from OS
             0 MiB allocation reported by mallinfo(arena+hblkhd)
        179390 MiB available memory on the node where the printing process lives
------------------
     ethr =  1.22E-03,  avg # of iterations =  9.5

     total cpu time spent up to now is      250.3 secs

     total energy              =  -41211.48888805 Ry
     estimated scf accuracy    <       5.60078357 Ry

     total magnetization       =    -0.00 Bohr mag/cell
     absolute magnetization    =     5.16 Bohr mag/cell

     iteration #  7     ecut=    80.00 Ry     beta= 0.40
     Davidson diagonalization with overlap

---- Real-time Memory Report at c_bands before calling an iterative solver
          1427 MiB given to the printing process from OS
             0 MiB allocation reported by mallinfo(arena+hblkhd)
        179375 MiB available memory on the node where the printing process lives
------------------
     ethr =  2.26E-04,  avg # of iterations =  6.0

     total cpu time spent up to now is      286.7 secs

     total energy              =  -41211.60204276 Ry
     estimated scf accuracy    <       2.09428684 Ry

     total magnetization       =    -2.00 Bohr mag/cell
     absolute magnetization    =     5.42 Bohr mag/cell

     iteration #  8     ecut=    80.00 Ry     beta= 0.40
     Davidson diagonalization with overlap

---- Real-time Memory Report at c_bands before calling an iterative solver
          1431 MiB given to the printing process from OS
             0 MiB allocation reported by mallinfo(arena+hblkhd)
        179367 MiB available memory on the node where the printing process lives
------------------
     ethr =  8.44E-05,  avg # of iterations =  3.5

     total cpu time spent up to now is      315.1 secs

     total energy              =  -41211.39261742 Ry
     estimated scf accuracy    <       1.50593472 Ry

     total magnetization       =    -2.00 Bohr mag/cell
     absolute magnetization    =     4.76 Bohr mag/cell

     iteration #  9     ecut=    80.00 Ry     beta= 0.40
     Davidson diagonalization with overlap

---- Real-time Memory Report at c_bands before calling an iterative solver
          1433 MiB given to the printing process from OS
             0 MiB allocation reported by mallinfo(arena+hblkhd)
        179329 MiB available memory on the node where the printing process lives
------------------
     ethr =  6.07E-05,  avg # of iterations =  6.0

     total cpu time spent up to now is      352.3 secs

     total energy              =  -41211.34547830 Ry
     estimated scf accuracy    <       0.59886603 Ry

     total magnetization       =    -2.00 Bohr mag/cell
     absolute magnetization    =     3.88 Bohr mag/cell

     iteration # 10     ecut=    80.00 Ry     beta= 0.40
     Davidson diagonalization with overlap

---- Real-time Memory Report at c_bands before calling an iterative solver
          1438 MiB given to the printing process from OS
             0 MiB allocation reported by mallinfo(arena+hblkhd)
        179361 MiB available memory on the node where the printing process lives
------------------
     ethr =  2.41E-05,  avg # of iterations = 14.5

     total cpu time spent up to now is      418.6 secs

     total energy              =  -41211.33080366 Ry
     estimated scf accuracy    <       0.20866761 Ry

     total magnetization       =    -2.00 Bohr mag/cell
     absolute magnetization    =     3.31 Bohr mag/cell

     iteration # 11     ecut=    80.00 Ry     beta= 0.40
     Davidson diagonalization with overlap

---- Real-time Memory Report at c_bands before calling an iterative solver
          1440 MiB given to the printing process from OS
             0 MiB allocation reported by mallinfo(arena+hblkhd)
        179342 MiB available memory on the node where the printing process lives
------------------
     ethr =  8.41E-06,  avg # of iterations = 10.0

     total cpu time spent up to now is      477.1 secs

     total energy              =  -41211.33944447 Ry
     estimated scf accuracy    <       0.06644948 Ry

     total magnetization       =    -2.00 Bohr mag/cell
     absolute magnetization    =     2.77 Bohr mag/cell

     iteration # 12     ecut=    80.00 Ry     beta= 0.40
     Davidson diagonalization with overlap

---- Real-time Memory Report at c_bands before calling an iterative solver
          1440 MiB given to the printing process from OS
             0 MiB allocation reported by mallinfo(arena+hblkhd)
        179347 MiB available memory on the node where the printing process lives
------------------
     ethr =  2.68E-06,  avg # of iterations =  8.0

     total cpu time spent up to now is      522.6 secs

     total energy              =  -41211.33981437 Ry
     estimated scf accuracy    <       0.02055222 Ry

     total magnetization       =    -2.00 Bohr mag/cell
     absolute magnetization    =     2.52 Bohr mag/cell

     iteration # 13     ecut=    80.00 Ry     beta= 0.40
     Davidson diagonalization with overlap

---- Real-time Memory Report at c_bands before calling an iterative solver
          1441 MiB given to the printing process from OS
             0 MiB allocation reported by mallinfo(arena+hblkhd)
        179355 MiB available memory on the node where the printing process lives
------------------
     ethr =  8.28E-07,  avg # of iterations =  5.5

     total cpu time spent up to now is      558.9 secs

     total energy              =  -41211.33834123 Ry
     estimated scf accuracy    <       0.00778965 Ry

     total magnetization       =    -2.00 Bohr mag/cell
     absolute magnetization    =     2.43 Bohr mag/cell

     iteration # 14     ecut=    80.00 Ry     beta= 0.40
     Davidson diagonalization with overlap

---- Real-time Memory Report at c_bands before calling an iterative solver
          1442 MiB given to the printing process from OS
             0 MiB allocation reported by mallinfo(arena+hblkhd)
        179357 MiB available memory on the node where the printing process lives
------------------
     ethr =  3.14E-07,  avg # of iterations = 14.5
 
     Magnetic moment per site  (integrated on atomic sphere of radius R)
     atom   1 (R=0.061)  charge= 17.3097  magn=  0.0001
     atom   2 (R=0.061)  charge= 17.3081  magn=  0.0001
     atom   3 (R=0.061)  charge= 17.3080  magn=  0.0001
     atom   4 (R=0.061)  charge= 17.3097  magn=  0.0001
     atom   5 (R=0.061)  charge= 17.3082  magn=  0.0001
     atom   6 (R=0.061)  charge= 17.3083  magn=  0.0001
     atom   7 (R=0.061)  charge= 17.3097  magn=  0.0001
     atom   8 (R=0.061)  charge= 17.3081  magn=  0.0001
     atom   9 (R=0.061)  charge= 17.3080  magn=  0.0001
     atom  10 (R=0.061)  charge= 17.3097  magn=  0.0001
     atom  11 (R=0.061)  charge= 17.3096  magn=  0.0001
     atom  12 (R=0.061)  charge= 17.3086  magn=  0.0001
     atom  13 (R=0.061)  charge= 17.3097  magn=  0.0001
     atom  14 (R=0.061)  charge= 17.3096  magn=  0.0001
     atom  15 (R=0.061)  charge= 17.3086  magn=  0.0001
     atom  16 (R=0.061)  charge= 17.3092  magn=  0.0001
     atom  17 (R=0.061)  charge= 17.3067  magn= -0.0016
     atom  18 (R=0.061)  charge= 17.3070  magn=  0.0002
     atom  19 (R=0.061)  charge= 17.3092  magn=  0.0001
     atom  20 (R=0.061)  charge= 17.3067  magn= -0.0016
     atom  21 (R=0.061)  charge= 17.3071  magn=  0.0002
     atom  22 (R=0.061)  charge= 17.3097  magn=  0.0001
     atom  23 (R=0.061)  charge= 17.3097  magn=  0.0001
     atom  24 (R=0.061)  charge= 17.3086  magn=  0.0001
     atom  25 (R=0.061)  charge= 17.3097  magn=  0.0001
     atom  26 (R=0.061)  charge= 17.3080  magn=  0.0001
     atom  27 (R=0.061)  charge= 17.3080  magn=  0.0001
     atom  28 (R=0.061)  charge= 17.3092  magn=  0.0001
     atom  29 (R=0.061)  charge= 17.3067  magn= -0.0016
     atom  30 (R=0.061)  charge= 17.3070  magn=  0.0002
     atom  31 (R=0.061)  charge= 17.3064  magn=  0.0001
     atom  32 (R=0.061)  charge= 17.3087  magn= -0.0000
     atom  33 (R=0.061)  charge= 17.3092  magn=  0.0001
     atom  34 (R=0.061)  charge= 17.3067  magn= -0.0016
     atom  35 (R=0.061)  charge= 17.3070  magn=  0.0002
     atom  36 (R=0.061)  charge= 17.3097  magn=  0.0001
     atom  37 (R=0.061)  charge= 17.3082  magn=  0.0001
     atom  38 (R=0.061)  charge= 17.3083  magn=  0.0002
     atom  39 (R=0.061)  charge= 17.3097  magn=  0.0001
     atom  40 (R=0.061)  charge= 17.3082  magn=  0.0001
     atom  41 (R=0.061)  charge= 17.3083  magn=  0.0001
     atom  42 (R=0.061)  charge= 17.3092  magn=  0.0001
     atom  43 (R=0.061)  charge= 17.3067  magn= -0.0016
     atom  44 (R=0.061)  charge= 17.3071  magn=  0.0002
     atom  45 (R=0.061)  charge= 17.3092  magn=  0.0001
     atom  46 (R=0.061)  charge= 17.3067  magn= -0.0016
     atom  47 (R=0.061)  charge= 17.3070  magn=  0.0002
     atom  48 (R=0.061)  charge= 17.3085  magn=  0.0001
     atom  49 (R=0.061)  charge= 17.3098  magn=  0.0001
     atom  50 (R=0.061)  charge= 17.3075  magn=  0.0001
     atom  51 (R=0.061)  charge= 17.3086  magn=  0.0000
     atom  52 (R=0.061)  charge= 17.3098  magn=  0.0001
     atom  53 (R=0.061)  charge= 17.3075  magn=  0.0001
     atom  54 (R=0.061)  charge= 17.3082  magn=  0.0000
     atom  55 (R=0.061)  charge= 17.3104  magn=  0.0001
     atom  56 (R=0.061)  charge= 17.3072  magn= -0.0002
     atom  57 (R=0.061)  charge= 17.3081  magn=  0.0001
     atom  58 (R=0.061)  charge= 17.3104  magn=  0.0001
     atom  59 (R=0.061)  charge= 17.3072  magn= -0.0002
     atom  60 (R=0.061)  charge= 17.3080  magn=  0.0001
     atom  61 (R=0.061)  charge= 17.3104  magn=  0.0001
     atom  62 (R=0.061)  charge= 17.3072  magn= -0.0002
     atom  63 (R=0.061)  charge= 17.3076  magn=  0.0001
     atom  64 (R=0.061)  charge= 17.3104  magn=  0.0000
     atom  65 (R=0.061)  charge= 17.3090  magn= -0.0001
     atom  66 (R=0.061)  charge= 17.3081  magn=  0.0000
     atom  67 (R=0.061)  charge= 17.3104  magn=  0.0001
     atom  68 (R=0.061)  charge= 17.3072  magn= -0.0002
     atom  69 (R=0.061)  charge= 17.3088  magn= -0.0000
     atom  70 (R=0.061)  charge= 17.3095  magn=  0.0001
     atom  71 (R=0.061)  charge= 17.3077  magn=  0.0002
     atom  72 (R=0.061)  charge= 17.3080  magn=  0.0001
     atom  73 (R=0.061)  charge= 17.3104  magn=  0.0001
     atom  74 (R=0.061)  charge= 17.3072  magn= -0.0002
     atom  75 (R=0.061)  charge= 17.3079  magn=  0.0001
     atom  76 (R=0.061)  charge= 17.3071  magn= -0.0031
     atom  77 (R=0.061)  charge= 17.2871  magn= -0.0021
     atom  78 (R=0.061)  charge= 17.3079  magn=  0.0001
     atom  79 (R=0.061)  charge= 17.3071  magn= -0.0031
     atom  80 (R=0.061)  charge= 17.2871  magn= -0.0021
     atom  81 (R=0.061)  charge= 17.3079  magn=  0.0001
     atom  82 (R=0.061)  charge= 17.3104  magn=  0.0001
     atom  83 (R=0.061)  charge= 17.3072  magn= -0.0002
     atom  84 (R=0.061)  charge= 17.3084  magn=  0.0001
     atom  85 (R=0.061)  charge= 17.3098  magn=  0.0001
     atom  86 (R=0.061)  charge= 17.3075  magn=  0.0001
     atom  87 (R=0.061)  charge= 17.3076  magn=  0.0001
     atom  88 (R=0.061)  charge= 17.3104  magn=  0.0000
     atom  89 (R=0.061)  charge= 17.3090  magn= -0.0001
     atom  90 (R=0.061)  charge= 17.3079  magn=  0.0001
     atom  91 (R=0.061)  charge= 17.3071  magn= -0.0031
     atom  92 (R=0.061)  charge= 17.2871  magn= -0.0021
     atom  93 (R=0.061)  charge= 17.3075  magn=  0.0001
     atom  94 (R=0.061)  charge= 17.3104  magn=  0.0000
     atom  95 (R=0.061)  charge= 17.3090  magn= -0.0001
     atom  96 (R=0.060)  charge=  5.2243  magn= -0.0002
     atom  97 (R=0.060)  charge=  5.2157  magn= -0.0014
     atom  98 (R=0.060)  charge=  5.2197  magn=  0.0004
     atom  99 (R=0.060)  charge=  5.2241  magn= -0.0002
     atom 100 (R=0.060)  charge=  5.2180  magn= -0.0004
     atom 101 (R=0.060)  charge=  5.2205  magn=  0.0006
     atom 102 (R=0.060)  charge=  5.2244  magn= -0.0001
     atom 103 (R=0.060)  charge=  5.2157  magn= -0.0014
     atom 104 (R=0.060)  charge=  5.2204  magn=  0.0007
     atom 105 (R=0.060)  charge=  5.2239  magn= -0.0001
     atom 106 (R=0.060)  charge=  5.2195  magn= -0.0002
     atom 107 (R=0.060)  charge=  5.2213  magn=  0.0008
     atom 108 (R=0.060)  charge=  5.2237  magn= -0.0001
     atom 109 (R=0.060)  charge=  5.2194  magn= -0.0002
     atom 110 (R=0.060)  charge=  5.2207  magn=  0.0006
     atom 111 (R=0.060)  charge=  5.2229  magn= -0.0012
     atom 112 (R=0.060)  charge=  5.2150  magn= -0.0056
     atom 113 (R=0.060)  charge=  5.2177  magn=  0.0005
     atom 114 (R=0.060)  charge=  5.2230  magn= -0.0012
     atom 115 (R=0.060)  charge=  5.2154  magn= -0.0057
     atom 116 (R=0.060)  charge=  5.2180  magn=  0.0007
     atom 117 (R=0.060)  charge=  5.2238  magn= -0.0001
     atom 118 (R=0.060)  charge=  5.2195  magn= -0.0002
     atom 119 (R=0.060)  charge=  5.2206  magn=  0.0007
     atom 120 (R=0.060)  charge=  5.2243  magn= -0.0002
     atom 121 (R=0.060)  charge=  5.2156  magn= -0.0014
     atom 122 (R=0.060)  charge=  5.2191  magn=  0.0003
     atom 123 (R=0.060)  charge=  5.2229  magn= -0.0012
     atom 124 (R=0.060)  charge=  5.2151  magn= -0.0056
     atom 125 (R=0.060)  charge=  5.2176  magn=  0.0005
     atom 126 (R=0.060)  charge=  5.2129  magn= -0.0010
     atom 127 (R=0.060)  charge=  5.2166  magn=  0.0003
     atom 128 (R=0.060)  charge=  5.2229  magn= -0.0012
     atom 129 (R=0.060)  charge=  5.2153  magn= -0.0057
     atom 130 (R=0.060)  charge=  5.2173  magn=  0.0006
     atom 131 (R=0.060)  charge=  5.2240  magn= -0.0002
     atom 132 (R=0.060)  charge=  5.2180  magn= -0.0004
     atom 133 (R=0.060)  charge=  5.2199  magn=  0.0005
     atom 134 (R=0.060)  charge=  5.2240  magn= -0.0002
     atom 135 (R=0.060)  charge=  5.2180  magn= -0.0004
     atom 136 (R=0.060)  charge=  5.2202  magn=  0.0005
     atom 137 (R=0.060)  charge=  5.2231  magn= -0.0012
     atom 138 (R=0.060)  charge=  5.2155  magn= -0.0057
     atom 139 (R=0.060)  charge=  5.2180  magn=  0.0007
     atom 140 (R=0.060)  charge=  5.2230  magn= -0.0012
     atom 141 (R=0.060)  charge=  5.2154  magn= -0.0057
     atom 142 (R=0.060)  charge=  5.2176  magn=  0.0006
     atom 143 (R=0.060)  charge=  5.2237  magn=  0.0005
     atom 144 (R=0.060)  charge=  5.2204  magn= -0.0004
     atom 145 (R=0.060)  charge=  5.2200  magn=  0.0001
     atom 146 (R=0.060)  charge=  5.2238  magn=  0.0006
     atom 147 (R=0.060)  charge=  5.2204  magn= -0.0004
     atom 148 (R=0.060)  charge=  5.2200  magn=  0.0002
     atom 149 (R=0.060)  charge=  5.2231  magn=  0.0004
     atom 150 (R=0.060)  charge=  5.2245  magn=  0.0004
     atom 151 (R=0.060)  charge=  5.2200  magn=  0.0000
     atom 152 (R=0.060)  charge=  5.2229  magn=  0.0003
     atom 153 (R=0.060)  charge=  5.2244  magn=  0.0004
     atom 154 (R=0.060)  charge=  5.2199  magn= -0.0000
     atom 155 (R=0.060)  charge=  5.2228  magn=  0.0001
     atom 156 (R=0.060)  charge=  5.2243  magn=  0.0004
     atom 157 (R=0.060)  charge=  5.2198  magn= -0.0001
     atom 158 (R=0.060)  charge=  5.2215  magn= -0.0001
     atom 159 (R=0.060)  charge=  5.2230  magn= -0.0005
     atom 160 (R=0.060)  charge=  5.2219  magn=  0.0000
     atom 161 (R=0.060)  charge=  5.2231  magn=  0.0004
     atom 162 (R=0.060)  charge=  5.2244  magn=  0.0004
     atom 163 (R=0.060)  charge=  5.2200  magn= -0.0000
     atom 164 (R=0.060)  charge=  5.2244  magn=  0.0006
     atom 165 (R=0.060)  charge=  5.2237  magn= -0.0001
     atom 166 (R=0.060)  charge=  5.2208  magn=  0.0002
     atom 167 (R=0.060)  charge=  5.2227  magn=  0.0001
     atom 168 (R=0.060)  charge=  5.2243  magn=  0.0004
     atom 169 (R=0.060)  charge=  5.2199  magn= -0.0001
     atom 170 (R=0.060)  charge=  5.2159  magn= -0.0002
     atom 171 (R=0.060)  charge=  5.2261  magn= -0.0584
     atom 172 (R=0.060)  charge=  5.2106  magn=  0.0038
     atom 173 (R=0.060)  charge=  5.2160  magn= -0.0002
     atom 174 (R=0.060)  charge=  5.2261  magn= -0.0584
     atom 175 (R=0.060)  charge=  5.2106  magn=  0.0038
     atom 176 (R=0.060)  charge=  5.2227  magn=  0.0002
     atom 177 (R=0.060)  charge=  5.2244  magn=  0.0004
     atom 178 (R=0.060)  charge=  5.2199  magn= -0.0000
     atom 179 (R=0.060)  charge=  5.2237  magn=  0.0005
     atom 180 (R=0.060)  charge=  5.2203  magn= -0.0004
     atom 181 (R=0.060)  charge=  5.2200  magn=  0.0000
     atom 182 (R=0.060)  charge=  5.2213  magn= -0.0001
     atom 183 (R=0.060)  charge=  5.2229  magn= -0.0005
     atom 184 (R=0.060)  charge=  5.2218  magn=  0.0000
     atom 185 (R=0.060)  charge=  5.2161  magn= -0.0002
     atom 186 (R=0.060)  charge=  5.2254  magn= -0.0583
     atom 187 (R=0.060)  charge=  5.2107  magn=  0.0038
     atom 188 (R=0.060)  charge=  5.2209  magn= -0.0001
     atom 189 (R=0.060)  charge=  5.2229  magn= -0.0004
     atom 190 (R=0.060)  charge=  5.2217  magn= -0.0000
     atom 191 (R=0.060)  charge=  8.6707  magn= -0.8608

     total cpu time spent up to now is      639.2 secs

     End of self-consistent calculation

 ------ SPIN UP ------------


          k = 0.0000 0.0000 0.0000 ( 93039 PWs)   bands (ev):

  -114.0282-114.0279-114.0268-113.8727-113.8726-113.8724-113.8724-113.8710
  -113.8707-113.8585-113.8582-113.8580-113.4662-113.4641-113.4627-113.4620
  -113.4510-113.4507-113.4504-113.4189-113.4189-113.4184-113.4179-113.4176
  -113.4164-113.4138-113.4136-113.4125-113.4085-113.4080-113.4074-113.4064
  -113.4060-113.4057-113.3768-113.3767-113.3754-113.3750-113.3749-113.3745
  -113.3586-113.3336-113.3263-113.3263-113.3242-113.3237-113.3234-113.3226
  -113.3209-113.3204-113.3200-113.3198-113.3096-113.3088-113.3082-113.3074
  -113.3071-113.3067-113.3067-113.3064-113.3059-113.2708-113.2702-113.2697
  -113.2421-113.2414-113.2407-113.2387-113.2384-113.2384-113.2376-113.2370
  -113.2366-113.2350-113.2350-113.2332-113.2332-113.2315-113.2302-113.2289
  -113.2286-113.2269-113.2241-113.2235-113.2185-113.2097-113.2050-113.2029
  -113.1995-113.1980-113.1957-113.1840-113.1821-113.1789-113.1763 -68.2717
   -68.2710 -68.2699 -68.1877 -68.1874 -68.1863 -68.1834 -68.1830 -68.1819
   -68.1201 -68.1199 -68.1197 -68.1196 -68.1184 -68.1181 -68.1094 -68.1091
   -68.1089 -68.0596 -68.0596 -68.0593 -68.0590 -68.0579 -68.0576 -68.0481
   -68.0479 -68.0477 -68.0477 -68.0464 -68.0461 -68.0426 -68.0420 -68.0418
   -68.0361 -68.0358 -68.0356 -67.6898 -67.6757 -67.6743 -67.6737 -67.6680
   -67.6666 -67.6660 -67.6630 -67.6625 -67.6617 -67.6617 -67.6613 -67.6610
   -67.6603 -67.6603 -67.6526 -67.6523 -67.6518 -67.6515 -67.6512 -67.6508
   -67.6309 -67.6305 -67.6298 -67.6297 -67.6294 -67.6294 -67.6234 -67.6230
   -67.6227 -67.6225 -67.6224 -67.6223 -67.6219 -67.6219 -67.6213 -67.6207
   -67.6201 -67.6196 -67.6195 -67.6190 -67.6186 -67.6185 -67.6184 -67.6183
   -67.6181 -67.6180 -67.6180 -67.6179 -67.6178 -67.6169 -67.6166 -67.6162
   -67.6152 -67.6103 -67.6097 -67.6091 -67.6082 -67.6078 -67.6072 -67.6058
   -67.6054 -67.6047 -67.6038 -67.6035 -67.6031 -67.5894 -67.5892 -67.5880
   -67.5875 -67.5874 -67.5870 -67.5821 -67.5815 -67.5806 -67.5801 -67.5798
   -67.5794 -67.5773 -67.5771 -67.5758 -67.5755 -67.5753 -67.5747 -67.5644
   -67.5644 -67.5610 -67.5416 -67.5416 -67.5395 -67.5391 -67.5387 -67.5384
   -67.5383 -67.5380 -67.5372 -67.5284 -67.5281 -67.5280 -67.5262 -67.5261
   -67.5256 -67.5254 -67.5253 -67.5251 -67.5248 -67.5246 -67.5246 -67.5245
   -67.5245 -67.5243 -67.5243 -67.5243 -67.5241 -67.5233 -67.5230 -67.5224
   -67.5219 -67.5215 -67.5207 -67.5179 -67.5175 -67.5170 -67.5164 -67.5160
   -67.5157 -67.5152 -67.5145 -67.5142 -67.5128 -67.5126 -67.5121 -67.5120
   -67.5115 -67.5111 -67.5107 -67.5107 -67.5103 -67.5101 -67.5097 -67.5093
   -67.5092 -67.5084 -67.5072 -67.5064 -67.5060 -67.5056 -67.4813 -67.4806
   -67.4801 -67.4726 -67.4717 -67.4712 -67.4707 -67.4703 -67.4697 -67.4527
   -67.4517 -67.4510 -67.4491 -67.4490 -67.4482 -67.4476 -67.4472 -67.4457
   -67.4450 -67.4448 -67.4445 -67.4442 -67.4436 -67.4425 -67.4422 -67.4419
   -67.4417 -67.4415 -67.4413 -67.4408 -67.4405 -67.4402 -67.4400 -67.4396
   -67.4395 -67.4394 -67.4390 -67.4389 -67.4386 -67.4384 -67.4381 -67.4380
   -67.4377 -67.4376 -67.4372 -67.4368 -67.4365 -67.4364 -67.4364 -67.4361
   -67.4359 -67.4357 -67.4356 -67.4353 -67.4347 -67.4340 -67.4332 -67.4330
   -67.4325 -67.4320 -67.4319 -67.4316 -67.4314 -67.4301 -67.4299 -67.4277
   -67.4272 -67.4266 -67.4236 -67.4230 -67.4217 -67.4183 -67.4170 -67.4128
   -67.4116 -67.4111 -67.4097 -67.4084 -67.4072 -67.4069 -67.4053 -67.4052
   -67.4046 -67.4035 -67.4022 -67.4008 -67.4004 -67.3988 -67.3983 -67.3965
   -67.3917 -67.3900 -67.3872 -67.3858 -67.3857 -67.3847 -67.3834 -67.3834
   -67.3812 -67.3809 -67.3785 -67.3784 -50.5812 -24.9498 -24.9498 -24.0938
    -8.5290  -8.2212  -8.2195  -7.9025  -7.7729  -7.7009  -7.7001  -7.6999
    -7.6445  -7.6442  -7.6142  -7.6026  -7.5512  -7.5498  -7.4948  -7.4771
    -7.4760  -7.4592  -7.4574  -7.4333  -7.4313  -7.4295  -7.4162  -7.4143
    -7.3990  -7.3824  -7.3648  -7.3587  -7.3584  -7.3499  -7.3177  -7.3161
    -7.2976  -7.2967  -7.2955  -7.2823  -7.2508  -7.2499  -7.2432  -7.2419
    -7.2204  -7.2188  -7.2170  -7.2036  -7.1876  -7.1786  -7.1782  -7.1606
    -7.1528  -7.1525  -7.1426  -7.1418  -7.1415  -7.1314  -7.1276  -7.1274
    -7.1232  -7.1227  -7.1215  -7.1043  -7.1039  -7.1016  -7.0996  -7.0880
    -7.0879  -7.0741  -7.0426  -7.0425  -7.0347  -7.0337  -7.0329  -7.0294
    -7.0289  -7.0229  -7.0174  -7.0090  -7.0068  -7.0067  -6.9903  -6.9891
    -6.9847  -6.9826  -6.9786  -6.9743  -6.9726  -6.9702  -6.9243  -6.9161
    -6.9155  -6.9057  -6.8915  -6.8903  -6.8866  -6.8864  -6.8840   3.6671
     3.6674   3.7817   3.8385   3.8387   3.8613   3.8823   3.8823   3.8848
     3.8952   3.8952   3.9188   3.9449   3.9451   3.9756   3.9756   3.9836
     3.9973   4.0210   4.0212   4.0408   4.0444   4.0447   4.0521   4.0542
     4.0641   4.0643   4.0850   4.0851   4.0977   4.1059   4.1087   4.1088
     4.1122   4.1226   4.1228   4.1269   4.1272   4.1419   4.1446   4.1465
     4.1467   4.1591   4.1665   4.1667   4.1737   4.1810   4.1811   4.1847
     4.1854   4.1861   4.2017   4.2112   4.2120   4.2169   4.2202   4.2240
     4.2244   4.2245   4.2276   4.2278   4.2318   4.2406   4.2445   4.2446
     4.2507   4.2556   4.2559   4.2650   4.2651   4.2698   4.2715   4.2717
     4.2845   4.2847   4.2982   4.2983   4.3029   4.3191   4.3233   4.3361
     4.3385   4.3389   4.3602   4.3657   4.3659   4.3856   4.3858   4.3869
     4.3932   4.3934   4.3959   4.3985   4.4078   4.4080   4.4104   4.4196
     4.4198   4.4264   4.4267   4.4276   4.4347   4.4353   4.4505   4.4506
     4.4577   4.4632   4.4634   4.4636   4.4656   4.4827   4.4829   4.4926
     4.5026   4.5027   4.5046   4.5084   4.5087   4.5097   4.5098   4.5291
     4.5328   4.5331   4.5384   4.5385   4.5428   4.5524   4.5529   4.5590
     4.5593   4.5612   4.5703   4.5789   4.5928   4.5949   4.5951   4.5999
     4.6001   4.6031   4.6106   4.6107   4.6171   4.6229   4.6229   4.6232
     4.6236   4.6252   4.6299   4.6338   4.6428   4.6433   4.6435   4.6476
     4.6476   4.6528   4.6533   4.6601   4.6611   4.6744   4.6750   4.6886
     4.6889   4.6937   4.6942   4.6946   4.6963   4.7084   4.7085   4.7144
     4.7146   4.7194   4.7198   4.7200   4.7215   4.7278   4.7301   4.7304
     4.7368   4.7398   4.7398   4.7499   4.7500   4.7503   4.7510   4.7517
     4.7560   4.7583   4.7586   4.7650   4.7652   4.7691   4.7693   4.7703
     4.7743   4.7806   4.7809   4.7818   4.7822   4.7827   4.7843   4.7883
     4.7892   4.7896   4.7939   4.7945   4.7970   4.8002   4.8051   4.8053
     4.8147   4.8162   4.8164   4.8201   4.8460   4.8462   4.8501   4.8525
     4.8527   4.8589   4.8593   4.8768   4.8825   4.8835   4.8899   4.8901
     4.9018   4.9029   4.9110   4.9265   4.9266   4.9361   4.9382   4.9388
     4.9395   4.9437   4.9443   4.9522   4.9535   4.9537   4.9659   4.9768
     4.9769   4.9801   4.9807   4.9820   4.9903   4.9961   4.9968   5.0053
     5.0147   5.0170   5.0172   5.0319   5.0323   5.0436   5.0438   5.0479
     5.0495   5.0503   5.0526   5.0567   5.0651   5.0653   5.0679   5.0684
     5.0780   5.0781   5.0950   5.0952   5.1013   5.1367   5.1371   5.1374
     5.1430   5.1440   5.1441   5.1468   5.1592   5.1596   5.1689   5.1872
     5.1878   5.1926   5.1928   5.2014   5.2147   5.2250   5.2254   5.2394
     5.2400   5.2550   5.2552   5.2674   5.2730   5.2730   5.2744   5.2880
     5.2975   5.3031   5.3032   5.3272   5.3369   5.3406   5.3407   5.3640
     5.3642   5.3941   5.3946   5.4114   5.4254   5.4255   5.4305   5.4477
     5.4512   5.4515   5.4550   5.4655   5.4739   5.4746   5.4975   5.4976
     5.5025   5.5027   5.5096   5.5111   5.5113   5.5261   5.5276   5.5279
     5.5421   5.5547   5.5551   5.5560   5.5603   5.5685   5.5688   5.5701
     5.5703   5.5857   5.5870   5.5871   5.5950   5.5952   5.5987   5.6037
     5.6063   5.6064   5.6110   5.6115   5.6120   5.6134   5.6174   5.6176
     5.6205   5.6242   5.6246   5.6253   5.6292   5.6296   5.6298   5.6373
     5.6410   5.6413   5.6602   5.6646   5.6646   5.6712   5.6714   5.6750
     5.6751   5.6802   5.6803   5.6836   5.6883   5.6883   5.6928   5.6963
     5.6964   5.7017   5.7053   5.7056   5.7110   5.7113   5.7149   5.7179
     5.7185   5.7187   5.7229   5.7231   5.7267   5.7320   5.7323   5.7335
     5.7356   5.7395   5.7398   5.7449   5.7502   5.7506   5.7531   5.7538
     5.7543   5.7627   5.7637   5.7750   5.7756   5.7769   5.7784   5.7785
     5.7869   5.7872   5.7910   5.7913   5.7973   5.7977   5.7993   5.8005
     5.8041   5.8044   5.8046   5.8068   5.8073   5.8076   5.8134   5.8141
     5.8184   5.8185   5.8216   5.8261   5.8262   5.8269   5.8282   5.8362
     5.8366   5.8428   5.8435   5.8547   5.8559   5.8580   5.8685   5.8792
     5.8799   5.8801   5.8857   5.8857   5.8891   5.8922   5.8928   5.8974
     5.8988   5.9000   5.9041   5.9045   5.9098   5.9099   5.9169   5.9293
     5.9402   5.9504   5.9505   5.9585   5.9687   5.9690   5.9733   5.9814
     5.9820   5.9964   5.9968   6.0024   6.0027   6.0032   6.0141   6.0183
     6.0207   6.0210   6.0287   6.0620   6.0734   6.0741   6.0993   6.1003
     6.1061   6.1061   6.1114   6.1201   6.1308   6.1312   6.1445   6.1477
     6.1481   6.2055   6.2119   6.2120   6.2350   6.2566   6.2567   6.2854
     6.3543   6.3544   6.3586   6.3884   6.4026   6.4029   6.4164   6.4340
     6.4341   6.4364   6.4425   6.4429   6.4512   6.4734   6.4834   6.4835
     6.5060   6.5061   6.5521   6.5523   6.5720   6.6005   6.6007   6.6408
     6.7248   6.7250   6.7547   6.7694   6.8037   6.8243   6.8300   6.8301
     6.8638   6.8638   6.8824   6.8825   6.9044   6.9170   6.9173   6.9285
     6.9643   6.9646   6.9793   6.9797   6.9805   7.0633   7.0637   7.0929
     7.0944   7.0946   7.1045   7.1083   7.1085   7.1204   7.1319   7.1411
     7.1728   7.1729   7.1822   7.2387   7.2388   7.2657   7.2793   7.2793
     7.3683   7.3684   7.3813   7.4134   7.4135   7.4296   7.4408   7.4409
     7.4477   7.4655   7.4843   7.4846   7.5136   7.5160   7.5163   7.5237
     7.5264   7.5336   7.5340   7.5766   7.6104   7.6107   7.6813   7.6814
     7.6921   7.7237   7.7238   7.7370   7.7446   7.7801   7.7803   7.7918
     7.7975   7.7978   7.8259   7.8261   7.8302   7.8854   7.8855   7.9696
     7.9698   8.0052   8.0655   8.0687   8.0688   8.1287   8.1289   8.1413
     8.1448   8.1453   8.1468   8.1749   8.1751   8.1920   8.2036   8.2103
     8.2104   8.2157   8.2190   8.2213   8.2241   8.2243   8.2418   8.2422
     8.2453   8.2582   8.2585   8.2903   8.3013   8.3015   8.3477   8.3483
     8.3491   8.3730   8.3731   8.3852   8.3870   8.3983   8.3986   8.4118
     8.4121   8.4311   8.4313   8.4364   8.4512   8.4692   8.4693   8.4770
     8.5038   8.5055   8.5057   8.5059   8.5379   8.5382   8.5655   8.5858
     8.5861   8.6042   8.6363   8.6366   8.6756   8.7437   8.7743   8.7747
     8.7929   8.7933   8.8097   8.8290   8.8305   8.8308   8.8505   8.8507
     8.8517   8.8557   8.8681   8.8711   8.8711   8.8822   8.8824   8.8930
     8.8964   8.9070   8.9075   8.9099   8.9176   8.9179   8.9287   8.9333
     8.9337   8.9367   8.9466   8.9507   8.9510   9.0103   9.0106   9.0446
     9.0607   9.0612   9.0770   9.0876   9.0880   9.0883   9.0905   9.1012
     9.1015   9.1133   9.1135   9.1288   9.1288   9.1609   9.1796   9.1797
     9.2455   9.2572   9.2659   9.2668   9.2876   9.2880   9.3278   9.3286
     9.3368   9.3374   9.3420   9.3430   9.3610   9.3691   9.3744   9.4005
     9.4007   9.4123   9.4124   9.4147   9.4430   9.4661   9.4666   9.4723
     9.4853   9.5140   9.5141   9.5425   9.5426   9.5768   9.5787   9.6411
     9.6428   9.6682   9.6942   9.6954   9.7299   9.7440   9.7450   9.7515
     9.8430   9.8431   9.9273   9.9275   9.9558  10.0610  10.1498  10.1501
    11.1375  12.1596  12.1599  12.4589  12.5844  12.8685  13.2218  13.2224
    13.3289  13.3293  13.4233  13.4240  13.4494  13.5748  14.0005  14.0184
    14.0197  14.0848  14.0853  14.1432

     occupation numbers 
     1.0000   1.0000   1.0000   1.0000   1.0000   1.0000   1.0000   1.0000
     1.0000   1.0000   1.0000   1.0000   1.0000   1.0000   1.0000   1.0000
     1.0000   1.0000   1.0000   1.0000   1.0000   1.0000   1.0000   1.0000
     1.0000   1.0000   1.0000   1.0000   1.0000   1.0000   1.0000   1.0000
     1.0000   1.0000   1.0000   1.0000   1.0000   1.0000   1.0000   1.0000
     1.0000   1.0000   1.0000   1.0000   1.0000   1.0000   1.0000   1.0000
     1.0000   1.0000   1.0000   1.0000   1.0000   1.0000   1.0000   1.0000
     1.0000   1.0000   1.0000   1.0000   1.0000   1.0000   1.0000   1.0000
     1.0000   1.0000   1.0000   1.0000   1.0000   1.0000   1.0000   1.0000
     1.0000   1.0000   1.0000   1.0000   1.0000   1.0000   1.0000   1.0000
     1.0000   1.0000   1.0000   1.0000   1.0000   1.0000   1.0000   1.0000
     1.0000   1.0000   1.0000   1.0000   1.0000   1.0000   1.0000   1.0000
     1.0000   1.0000   1.0000   1.0000   1.0000   1.0000   1.0000   1.0000
     1.0000   1.0000   1.0000   1.0000   1.0000   1.0000   1.0000   1.0000
     1.0000   1.0000   1.0000   1.0000   1.0000   1.0000   1.0000   1.0000
     1.0000   1.0000   1.0000   1.0000   1.0000   1.0000   1.0000   1.0000
     1.0000   1.0000   1.0000   1.0000   1.0000   1.0000   1.0000   1.0000
     1.0000   1.0000   1.0000   1.0000   1.0000   1.0000   1.0000   1.0000
     1.0000   1.0000   1.0000   1.0000   1.0000   1.0000   1.0000   1.0000
     1.0000   1.0000   1.0000   1.0000   1.0000   1.0000   1.0000   1.0000
     1.0000   1.0000   1.0000   1.0000   1.0000   1.0000   1.0000   1.0000
     1.0000   1.0000   1.0000   1.0000   1.0000   1.0000   1.0000   1.0000
     1.0000   1.0000   1.0000   1.0000   1.0000   1.0000   1.0000   1.0000
     1.0000   1.0000   1.0000   1.0000   1.0000   1.0000   1.0000   1.0000
     1.0000   1.0000   1.0000   1.0000   1.0000   1.0000   1.0000   1.0000
     1.0000   1.0000   1.0000   1.0000   1.0000   1.0000   1.0000   1.0000
     1.0000   1.0000   1.0000   1.0000   1.0000   1.0000   1.0000   1.0000
     1.0000   1.0000   1.0000   1.0000   1.0000   1.0000   1.0000   1.0000
     1.0000   1.0000   1.0000   1.0000   1.0000   1.0000   1.0000   1.0000
     1.0000   1.0000   1.0000   1.0000   1.0000   1.0000   1.0000   1.0000
     1.0000   1.0000   1.0000   1.0000   1.0000   1.0000   1.0000   1.0000
     1.0000   1.0000   1.0000   1.0000   1.0000   1.0000   1.0000   1.0000
     1.0000   1.0000   1.0000   1.0000   1.0000   1.0000   1.0000   1.0000
     1.0000   1.0000   1.0000   1.0000   1.0000   1.0000   1.0000   1.0000
     1.0000   1.0000   1.0000   1.0000   1.0000   1.0000   1.0000   1.0000
     1.0000   1.0000   1.0000   1.0000   1.0000   1.0000   1.0000   1.0000
     1.0000   1.0000   1.0000   1.0000   1.0000   1.0000   1.0000   1.0000
     1.0000   1.0000   1.0000   1.0000   1.0000   1.0000   1.0000   1.0000
     1.0000   1.0000   1.0000   1.0000   1.0000   1.0000   1.0000   1.0000
     1.0000   1.0000   1.0000   1.0000   1.0000   1.0000   1.0000   1.0000
     1.0000   1.0000   1.0000   1.0000   1.0000   1.0000   1.0000   1.0000
     1.0000   1.0000   1.0000   1.0000   1.0000   1.0000   1.0000   1.0000
     1.0000   1.0000   1.0000   1.0000   1.0000   1.0000   1.0000   1.0000
     1.0000   1.0000   1.0000   1.0000   1.0000   1.0000   1.0000   1.0000
     1.0000   1.0000   1.0000   1.0000   1.0000   1.0000   1.0000   1.0000
     1.0000   1.0000   1.0000   1.0000   1.0000   1.0000   1.0000   1.0000
     1.0000   1.0000   1.0000   1.0000   1.0000   1.0000   1.0000   1.0000
     1.0000   1.0000   1.0000   1.0000   1.0000   1.0000   1.0000   1.0000
     1.0000   1.0000   1.0000   1.0000   1.0000   1.0000   1.0000   1.0000
     1.0000   1.0000   1.0000   1.0000   1.0000   1.0000   1.0000   1.0000
     1.0000   1.0000   1.0000   1.0000   1.0000   1.0000   1.0000   1.0000
     1.0000   1.0000   1.0000   1.0000   1.0000   1.0000   1.0000   1.0000
     1.0000   1.0000   1.0000   1.0000   1.0000   1.0000   1.0000   1.0000
     1.0000   1.0000   1.0000   1.0000   1.0000   1.0000   1.0000   1.0000
     1.0000   1.0000   1.0000   1.0000   1.0000   1.0000   1.0000   1.0000
     1.0000   1.0000   1.0000   1.0000   1.0000   1.0000   1.0000   1.0000
     1.0000   1.0000   1.0000   1.0000   1.0000   1.0000   1.0000   1.0000
     1.0000   1.0000   1.0000   1.0000   1.0000   1.0000   1.0000   1.0000
     1.0000   1.0000   1.0000   1.0000   1.0000   1.0000   1.0000   1.0000
     1.0000   1.0000   1.0000   1.0000   1.0000   1.0000   1.0000   1.0000
     1.0000   1.0000   1.0000   1.0000   1.0000   1.0000   1.0000   1.0000
     1.0000   1.0000   1.0000   1.0000   1.0000   1.0000   1.0000   1.0000
     1.0000   1.0000   1.0000   1.0000   1.0000   1.0000   1.0000   1.0000
     1.0000   1.0000   1.0000   1.0000   1.0000   1.0000   1.0000   1.0000
     1.0000   1.0000   1.0000   1.0000   1.0000   1.0000   1.0000   1.0000
     1.0000   1.0000   1.0000   1.0000   1.0000   1.0000   1.0000   1.0000
     1.0000   1.0000   1.0000   1.0000   1.0000   1.0000   1.0000   1.0000
     1.0000   1.0000   1.0000   1.0000   1.0000   1.0000   1.0000   1.0000
     1.0000   1.0000   1.0000   1.0000   1.0000   1.0000   1.0000   1.0000
     1.0000   1.0000   1.0000   1.0000   1.0000   1.0000   1.0000   1.0000
     1.0000   1.0000   1.0000   1.0000   1.0000   1.0000   1.0000   1.0000
     1.0000   1.0000   1.0000   1.0000   1.0000   1.0000   1.0000   1.0000
     1.0000   1.0000   1.0000   1.0000   1.0000   1.0000   1.0000   1.0000
     1.0000   1.0000   1.0000   1.0000   1.0000   1.0000   1.0000   1.0000
     1.0000   1.0000   1.0000   1.0000   1.0000   1.0000   1.0000   1.0000
     1.0000   1.0000   1.0000   1.0000   1.0000   1.0000   1.0000   1.0000
     1.0000   1.0000   1.0000   1.0000   1.0000   1.0000   1.0000   1.0000
     1.0000   1.0000   1.0000   1.0000   1.0000   1.0000   1.0000   1.0000
     1.0000   1.0000   1.0000   1.0000   1.0000   1.0000   1.0000   1.0000
     1.0000   1.0000   1.0000   1.0000   1.0000   1.0000   1.0000   1.0000
     1.0000   1.0000   1.0000   1.0000   1.0000   1.0000   1.0000   1.0000
     1.0000   1.0000   1.0000   1.0000   1.0000   1.0000   1.0000   1.0000
     1.0000   1.0000   1.0000   1.0000   1.0000   1.0000   1.0000   1.0000
     1.0000   1.0000   1.0000   1.0000   1.0000   1.0000   1.0000   1.0000
     1.0000   1.0000   1.0000   1.0000   1.0000   1.0000   1.0000   1.0000
     1.0000   1.0000   1.0000   1.0000   1.0000   1.0000   1.0000   1.0000
     1.0000   1.0000   1.0000   1.0000   1.0000   1.0000   1.0000   1.0000
     1.0000   1.0000   1.0000   1.0000   1.0000   1.0000   1.0000   1.0000
     1.0000   1.0000   1.0000   1.0000   1.0000   1.0000   1.0000   1.0000
     1.0000   1.0000   1.0000   1.0000   1.0000   1.0000   1.0000   1.0000
     1.0000   1.0000   1.0000   1.0000   1.0000   1.0000   1.0000   1.0000
     1.0000   1.0000   1.0000   1.0000   1.0000   1.0000   1.0000   1.0000
     1.0000   1.0000   1.0000   1.0000   1.0000   1.0000   1.0000   1.0000
     1.0000   1.0000   1.0000   1.0000   1.0000   1.0000   1.0000   1.0000
     1.0000   1.0000   1.0000   1.0000   1.0000   1.0000   1.0000   1.0000
     1.0000   1.0000   1.0000   1.0000   1.0000   1.0000   1.0000   1.0000
     1.0000   1.0000   1.0000   1.0000   1.0000   1.0000   1.0000   1.0000
     1.0000   1.0000   1.0000   1.0000   1.0000   1.0000   1.0000   1.0000
     1.0000   1.0000   1.0000   1.0000   1.0000   1.0000   1.0000   1.0000
     1.0000   1.0000   1.0000   1.0000   1.0000   1.0000   1.0000   1.0000
     1.0000   1.0000   1.0000   1.0000   1.0000   1.0000   1.0000   1.0000
     1.0000   1.0000   1.0000   1.0000   1.0000   1.0000   1.0000   1.0000
     1.0000   1.0000   1.0000   1.0000   1.0000   1.0000   1.0000   1.0000
     1.0000   1.0000   1.0000   1.0000   1.0000   1.0000   1.0000   1.0000
     1.0000   1.0000   1.0000   1.0000   1.0000   1.0000   1.0000   1.0000
     1.0000   1.0000   1.0000   1.0000   1.0000   1.0000   1.0000   1.0000
     1.0000   1.0000   1.0000   1.0000   1.0000   1.0000   1.0000   1.0000
     1.0000   1.0000   1.0000   1.0000   1.0000   1.0000   1.0000   1.0000
     1.0000   1.0000   1.0000   1.0000   1.0000   1.0000   1.0000   1.0000
     1.0000   1.0000   1.0000   1.0000   1.0000   1.0000   1.0000   1.0000
     1.0000   1.0000   1.0000   1.0000   1.0000   1.0000   1.0000   1.0000
     1.0000   1.0000   1.0000   1.0000   1.0000   1.0000   1.0000   1.0000
     1.0000   1.0000   1.0000   1.0000   1.0000   1.0000   1.0000   1.0000
     1.0000   1.0000   1.0000   1.0000   1.0000   1.0000   1.0000   1.0000
     1.0000   1.0000   1.0000   1.0000   1.0000   1.0000   1.0000   1.0000
     1.0000   1.0000   1.0000   1.0000   1.0000   1.0000   1.0000   1.0000
     1.0000   1.0000   1.0000   1.0000   1.0000   1.0000   1.0000   1.0000
     1.0000   1.0000   1.0000   1.0000   1.0000   1.0000   1.0000   1.0000
     1.0000   1.0000   1.0000   1.0000   1.0000   1.0000   1.0000   1.0000
     1.0000   1.0000   1.0000   1.0000   1.0000   1.0000   1.0000   1.0000
     1.0000   1.0000   1.0000   1.0000   1.0000   1.0000   1.0000   1.0000
     1.0000   1.0000   1.0000   1.0000   1.0000   1.0000   1.0000   1.0000
     1.0000   1.0000   1.0000   1.0000   1.0000   1.0000   1.0000   1.0000
     1.0000   1.0000   1.0000   1.0000   1.0000   1.0000   1.0000   1.0000
     1.0000   1.0000   1.0000   1.0000   1.0000   1.0000   1.0000   1.0000
     1.0000   1.0000   1.0000   1.0000   1.0000   1.0000   1.0000   1.0000
     1.0000   1.0000   1.0000   1.0000   1.0000   1.0000   1.0000   1.0000
     1.0000   1.0000   1.0000   1.0000   1.0000   1.0000   1.0000   1.0000
     1.0000   1.0000   1.0000   1.0000   1.0000   1.0000   1.0000   1.0000
     1.0000   1.0000   1.0000   1.0000   1.0000   1.0000   1.0000   1.0000
     1.0000   1.0000   1.0000   1.0000   1.0000   1.0000   1.0000   1.0000
     1.0000   1.0000   1.0000   1.0000   1.0000   1.0000   1.0000   1.0000
     1.0000   1.0000   1.0000   1.0000   1.0000   1.0000   1.0000   1.0000
     1.0000   1.0000   1.0000   1.0000   1.0000   1.0000   1.0000   1.0000
[...]
     2.3255   2.3313   2.3396   2.3396   2.3445   2.3457   2.3457   2.3474
     2.3474   2.3480   2.3580   2.3580   2.3611   2.3611   2.3641   2.3707
     2.3733   2.3733   2.3772   2.3804   2.3804   2.3857   2.3857   2.3857
     2.3889   2.3889   2.3932   2.3972   2.4057   2.4057   2.4144   2.4213
     2.4213   2.4224   2.4276   2.4276   2.4367   2.4372   2.4372   2.4373
     2.4373   2.4399   2.4434   2.4434   2.4443   2.4496   2.4571   2.4571
     2.4571   2.4600   2.4600   2.4650   2.4660   2.4683   2.4683   2.4721
     2.4721   2.4749   2.4749   2.4979   2.4985   2.4985   2.5019   2.5029
     2.5029   2.5192   2.5230   2.5230   2.5312   2.5312   2.5312   2.5467
     2.5545   2.5545   2.5677   2.5961   2.6013   2.6013   2.6060   2.6060
     2.6129   2.6264   2.6264   2.6294   2.6320   2.6511   2.6511   2.6658
     2.6658   2.6989   2.6989   2.7307   2.7642   2.7652   2.7652   2.7711
     2.7947   2.7947   2.9123   2.9166   2.9166   2.9972   2.9972   3.2230
     3.3808   3.4854   3.4854   3.5107   3.5338   3.5338   3.5562   3.5562
     3.5802   3.6016   3.6170   3.6683   3.6683   3.7053   3.7053   3.7150
     3.7850   3.7850   3.7895   3.9148   3.9513   3.9526   3.9526   3.9690
     3.9690   3.9862   3.9972   3.9972   4.0358   4.0358   4.0661   4.0786
     4.1011   4.1011   4.1151   4.1151   4.1296   4.2252   4.2252   4.2509
     4.2803   4.3428   4.3428   4.3456   4.3476   4.3726   4.3783   4.3783
     4.4010   4.4010   4.4595   4.4595   4.4781   4.4781   4.4929   4.4943
     4.5084   4.5084   4.5513   4.5513   4.5609   4.6281   4.6281   4.6356
     4.6548   4.6549   4.6549   4.6796   4.6863   4.7112   4.7112   4.8135
     4.8135   4.9406   5.0460   5.0680   5.0775   5.0775   5.1538   5.1538
     5.2103   5.2150   5.2175   5.2175   5.2546   5.2595   5.2595   5.2770
     5.2770   5.3321   5.3321   5.3519   5.3606   5.3606   5.3746   5.3823
     5.3998   5.4028   5.4106   5.4106   5.4589   5.4589   5.4936   5.5055
     5.5055   5.5463   5.5463   5.5468   5.5736   5.5736   5.5942   5.6143
     5.6143   5.6267   5.6937   5.6937   5.6982   5.7291   5.7291   5.8924
     5.8924   5.8997   6.0190   6.0190   6.0475   6.0931   6.0987   6.0987
     6.1189   6.1189   6.1319   6.1446   6.1554   6.1554   6.1710   6.1747
     6.1747   6.1857   6.1940   6.1943   6.1943   6.2029   6.2196   6.2196
     6.2250   6.2296   6.2296   6.2328   6.2463   6.2463   6.2934   6.2980
     6.2980   6.3142   6.3257   6.3257   6.3466   6.3466   6.3649   6.3706
     6.3783   6.3783   6.3937   6.3937   6.4094   6.4395   6.4444   6.4444
     6.4592   6.4662   6.4662   6.5038   6.5383   6.5383   6.5682   6.5682
     6.5847   6.6275   6.6275   6.6727   6.7341   6.7581   6.7668   6.7668
     6.8052   6.8052   6.8160   6.8288   6.8341   6.8341   6.8634   6.8634
     6.8640   6.8761   6.8915   6.8915   6.9012   6.9164   6.9164   6.9250
     6.9281   6.9378   6.9378   6.9490   6.9613   6.9613   6.9702   6.9759
     6.9857   6.9857   6.9981   7.0027   7.0027   7.0376   7.0376   7.1079
     7.1176   7.1176   7.1277   7.1439   7.1447   7.1447   7.1527   7.1633
     7.1633   7.1755   7.1755   7.2004   7.2004   7.2367   7.2581   7.2581
     7.3226   7.3387   7.3387   7.3479   7.3708   7.3708   7.4071   7.4071
     7.4205   7.4205   7.4266   7.4266   7.4499   7.4529   7.4549   7.4885
     7.4885   7.5050   7.5050   7.5143   7.5305   7.5590   7.5590   7.5682
     7.5839   7.6220   7.6220   7.6421   7.6421   7.6894   7.6894   7.7631
     7.7631   7.7936   7.8056   7.8056   7.8468   7.8646   7.8646   7.8747
     7.9849   7.9849   8.0730   8.0730   8.1720   8.3121   8.3121   8.5864
     8.7544   8.7544  11.5670  12.5227  13.1223  13.3067  13.3067  13.3569
    13.8764  13.8764  14.1062  14.1062  14.1484  14.2590  14.6689  14.7336
    14.7336  14.8566  14.8567  14.9144

     occupation numbers 
     1.0000   1.0000   1.0000   1.0000   1.0000   1.0000   1.0000   1.0000
     1.0000   1.0000   1.0000   1.0000   1.0000   1.0000   1.0000   1.0000
     1.0000   1.0000   1.0000   1.0000   1.0000   1.0000   1.0000   1.0000
     1.0000   1.0000   1.0000   1.0000   1.0000   1.0000   1.0000   1.0000
     1.0000   1.0000   1.0000   1.0000   1.0000   1.0000   1.0000   1.0000
     1.0000   1.0000   1.0000   1.0000   1.0000   1.0000   1.0000   1.0000
     1.0000   1.0000   1.0000   1.0000   1.0000   1.0000   1.0000   1.0000
     1.0000   1.0000   1.0000   1.0000   1.0000   1.0000   1.0000   1.0000
     1.0000   1.0000   1.0000   1.0000   1.0000   1.0000   1.0000   1.0000
     1.0000   1.0000   1.0000   1.0000   1.0000   1.0000   1.0000   1.0000
     1.0000   1.0000   1.0000   1.0000   1.0000   1.0000   1.0000   1.0000
     1.0000   1.0000   1.0000   1.0000   1.0000   1.0000   1.0000   1.0000
     1.0000   1.0000   1.0000   1.0000   1.0000   1.0000   1.0000   1.0000
     1.0000   1.0000   1.0000   1.0000   1.0000   1.0000   1.0000   1.0000
     1.0000   1.0000   1.0000   1.0000   1.0000   1.0000   1.0000   1.0000
     1.0000   1.0000   1.0000   1.0000   1.0000   1.0000   1.0000   1.0000
     1.0000   1.0000   1.0000   1.0000   1.0000   1.0000   1.0000   1.0000
     1.0000   1.0000   1.0000   1.0000   1.0000   1.0000   1.0000   1.0000
     1.0000   1.0000   1.0000   1.0000   1.0000   1.0000   1.0000   1.0000
     1.0000   1.0000   1.0000   1.0000   1.0000   1.0000   1.0000   1.0000
     1.0000   1.0000   1.0000   1.0000   1.0000   1.0000   1.0000   1.0000
     1.0000   1.0000   1.0000   1.0000   1.0000   1.0000   1.0000   1.0000
     1.0000   1.0000   1.0000   1.0000   1.0000   1.0000   1.0000   1.0000
     1.0000   1.0000   1.0000   1.0000   1.0000   1.0000   1.0000   1.0000
     1.0000   1.0000   1.0000   1.0000   1.0000   1.0000   1.0000   1.0000
     1.0000   1.0000   1.0000   1.0000   1.0000   1.0000   1.0000   1.0000
     1.0000   1.0000   1.0000   1.0000   1.0000   1.0000   1.0000   1.0000
     1.0000   1.0000   1.0000   1.0000   1.0000   1.0000   1.0000   1.0000
     1.0000   1.0000   1.0000   1.0000   1.0000   1.0000   1.0000   1.0000
     1.0000   1.0000   1.0000   1.0000   1.0000   1.0000   1.0000   1.0000
     1.0000   1.0000   1.0000   1.0000   1.0000   1.0000   1.0000   1.0000
     1.0000   1.0000   1.0000   1.0000   1.0000   1.0000   1.0000   1.0000
     1.0000   1.0000   1.0000   1.0000   1.0000   1.0000   1.0000   1.0000
     1.0000   1.0000   1.0000   1.0000   1.0000   1.0000   1.0000   1.0000
     1.0000   1.0000   1.0000   1.0000   1.0000   1.0000   1.0000   1.0000
     1.0000   1.0000   1.0000   1.0000   1.0000   1.0000   1.0000   1.0000
     1.0000   1.0000   1.0000   1.0000   1.0000   1.0000   1.0000   1.0000
     1.0000   1.0000   1.0000   1.0000   1.0000   1.0000   1.0000   1.0000
     1.0000   1.0000   1.0000   1.0000   1.0000   1.0000   1.0000   1.0000
     1.0000   1.0000   1.0000   1.0000   1.0000   1.0000   1.0000   1.0000
     1.0000   1.0000   1.0000   1.0000   1.0000   1.0000   1.0000   1.0000
     1.0000   1.0000   1.0000   1.0000   1.0000   1.0000   1.0000   1.0000
     1.0000   1.0000   1.0000   1.0000   1.0000   1.0000   1.0000   1.0000
     1.0000   1.0000   1.0000   1.0000   1.0000   1.0000   1.0000   1.0000
     1.0000   1.0000   1.0000   1.0000   1.0000   1.0000   1.0000   1.0000
     1.0000   1.0000   1.0000   1.0000   1.0000   1.0000   1.0000   1.0000
     1.0000   1.0000   1.0000   1.0000   1.0000   1.0000   1.0000   1.0000
     1.0000   1.0000   1.0000   1.0000   1.0000   1.0000   1.0000   1.0000
     1.0000   1.0000   1.0000   1.0000   1.0000   1.0000   1.0000   1.0000
     1.0000   1.0000   1.0000   1.0000   1.0000   1.0000   1.0000   1.0000
     1.0000   1.0000   1.0000   1.0000   1.0000   1.0000   1.0000   1.0000
     1.0000   1.0000   1.0000   1.0000   1.0000   1.0000   1.0000   1.0000
     1.0000   1.0000   1.0000   1.0000   1.0000   1.0000   1.0000   1.0000
     1.0000   1.0000   1.0000   1.0000   1.0000   1.0000   1.0000   1.0000
     1.0000   1.0000   1.0000   1.0000   1.0000   1.0000   1.0000   1.0000
     1.0000   1.0000   1.0000   1.0000   1.0000   1.0000   1.0000   1.0000
     1.0000   1.0000   1.0000   1.0000   1.0000   1.0000   1.0000   1.0000
     1.0000   1.0000   1.0000   1.0000   1.0000   1.0000   1.0000   1.0000
     1.0000   1.0000   1.0000   1.0000   1.0000   1.0000   1.0000   1.0000
     1.0000   1.0000   1.0000   1.0000   1.0000   1.0000   1.0000   1.0000
     1.0000   1.0000   1.0000   1.0000   1.0000   1.0000   1.0000   1.0000
     1.0000   1.0000   1.0000   1.0000   1.0000   1.0000   1.0000   1.0000
     1.0000   1.0000   1.0000   1.0000   1.0000   1.0000   1.0000   1.0000
     1.0000   1.0000   1.0000   1.0000   1.0000   1.0000   1.0000   1.0000
     1.0000   1.0000   1.0000   1.0000   1.0000   1.0000   1.0000   1.0000
     1.0000   1.0000   1.0000   1.0000   1.0000   1.0000   1.0000   1.0000
     1.0000   1.0000   1.0000   1.0000   1.0000   1.0000   1.0000   1.0000
     1.0000   1.0000   1.0000   1.0000   1.0000   1.0000   1.0000   1.0000
     1.0000   1.0000   1.0000   1.0000   1.0000   1.0000   1.0000   1.0000
     1.0000   1.0000   1.0000   1.0000   1.0000   1.0000   1.0000   1.0000
     1.0000   1.0000   1.0000   1.0000   1.0000   1.0000   1.0000   1.0000
     1.0000   1.0000   1.0000   1.0000   1.0000   1.0000   1.0000   1.0000
     1.0000   1.0000   1.0000   1.0000   1.0000   1.0000   1.0000   1.0000
     1.0000   1.0000   1.0000   1.0000   1.0000   1.0000   1.0000   1.0000
     1.0000   1.0000   1.0000   1.0000   1.0000   1.0000   1.0000   1.0000
     1.0000   1.0000   1.0000   1.0000   1.0000   1.0000   1.0000   1.0000
     1.0000   1.0000   1.0000   1.0000   1.0000   1.0000   1.0000   1.0000
     1.0000   1.0000   1.0000   1.0000   1.0000   1.0000   1.0000   1.0000
     1.0000   1.0000   1.0000   1.0000   1.0000   1.0000   1.0000   1.0000
     1.0000   1.0000   1.0000   1.0000   1.0000   1.0000   1.0000   1.0000
     1.0000   1.0000   1.0000   1.0000   1.0000   1.0000   1.0000   1.0000
     1.0000   1.0000   1.0000   1.0000   1.0000   1.0000   1.0000   1.0000
     1.0000   1.0000   1.0000   1.0000   1.0000   1.0000   1.0000   1.0000
     1.0000   1.0000   1.0000   1.0000   1.0000   1.0000   1.0000   1.0000
     1.0000   1.0000   1.0000   1.0000   1.0000   1.0000   1.0000   1.0000
     1.0000   1.0000   1.0000   1.0000   1.0000   1.0000   1.0000   1.0000
     1.0000   1.0000   1.0000   1.0000   1.0000   1.0000   1.0000   1.0000
     1.0000   1.0000   1.0000   1.0000   1.0000   1.0000   1.0000   1.0000
     1.0000   1.0000   1.0000   1.0000   1.0000   1.0000   1.0000   1.0000
     1.0000   1.0000   1.0000   1.0000   1.0000   1.0000   1.0000   1.0000
     1.0000   1.0000   1.0000   1.0000   1.0000   1.0000   1.0000   1.0000
     1.0000   1.0000   1.0000   1.0000   1.0000   1.0000   1.0000   1.0000
     1.0000   1.0000   1.0000   1.0000   1.0000   1.0000   1.0000   1.0000
     1.0000   1.0000   1.0000   1.0000   1.0000   1.0000   1.0000   1.0000
     1.0000   1.0000   1.0000   1.0000   1.0000   1.0000   1.0000   1.0000
     1.0000   1.0000   1.0000   1.0000   1.0000   1.0000   1.0000   1.0000
     1.0000   1.0000   1.0000   1.0000   1.0000   1.0000   1.0000   1.0000
     1.0000   1.0000   1.0000   1.0000   1.0000   1.0000   1.0000   1.0000
     1.0000   1.0000   1.0000   1.0000   1.0000   1.0000   1.0000   1.0000
     1.0000   1.0000   1.0000   1.0000   1.0000   1.0000   1.0000   1.0000
     1.0000   1.0000   1.0000   1.0000   1.0000   1.0000   1.0000   1.0000
     1.0000   1.0000   1.0000   1.0000   1.0000   1.0000   1.0000   1.0000
     1.0000   1.0000   1.0000   1.0000   1.0000   1.0000   1.0000   1.0000
     1.0000   1.0000   1.0000   1.0000   1.0000   1.0000   1.0000   1.0000
     1.0000   1.0000   1.0000   1.0000   1.0000   1.0000   1.0000   1.0000
     1.0000   1.0000   1.0000   1.0000   1.0000   1.0000   1.0000   1.0000
     1.0000   1.0000   1.0000   1.0000   1.0000   1.0000   1.0000   1.0000
     1.0000   1.0000   1.0000   1.0000   1.0000   1.0000   1.0000   1.0000
     1.0000   1.0000   1.0000   1.0000   1.0000   1.0000   1.0000   1.0000
     1.0000   1.0000   1.0000   1.0000   1.0000   1.0000   1.0000   1.0000
     1.0000   1.0000   1.0000   1.0000   1.0000   1.0000   1.0000   1.0000
     1.0000   1.0000   1.0000   1.0000   1.0000   1.0000   1.0000   1.0000
     1.0000   1.0000   1.0000   1.0000   1.0000   1.0000   1.0000   1.0000
     1.0000   1.0000   1.0000   1.0000   1.0000   1.0000   1.0000   1.0000
     1.0000   1.0000   1.0000   1.0000   1.0000   1.0000   1.0000   1.0000
     1.0000   1.0000   1.0000   1.0000   1.0000   1.0000   1.0000   1.0000
     1.0000   1.0000   1.0000   1.0000   1.0000   1.0000   1.0000   1.0000
     1.0000   1.0000   1.0000   1.0000   1.0000   1.0000   1.0000   1.0000
     1.0000   1.0000   1.0000   1.0000   1.0000   1.0000   1.0000   1.0000
     1.0000   1.0000   1.0000   1.0000   1.0000   1.0000   1.0000   1.0000
     1.0000   1.0000   1.0000   1.0000   1.0000   1.0000   1.0000   1.0000
     1.0000   1.0000   1.0000   1.0000   1.0000   1.0000   1.0000   1.0000
     1.0000   1.0000   1.0000   1.0000   1.0000   1.0000   1.0000   1.0000
     1.0000   1.0000   1.0000   1.0000   1.0000   1.0000   1.0000   1.0000
     1.0000   1.0000   1.0000   1.0000   1.0000   1.0000   1.0000   1.0000
     1.0000   1.0000   1.0000   1.0000   1.0000   1.0000   1.0000   1.0000
     1.0000   1.0000   1.0000   1.0000   1.0000   1.0000   1.0000   1.0000
     1.0000   1.0000   1.0000   1.0000   1.0000   1.0000   1.0000   1.0000
     1.0000   1.0000   1.0000   1.0000   1.0000   1.0000   1.0000   1.0000
     1.0000   1.0000   1.0000   1.0000   1.0000   1.0000   1.0000   1.0000
     1.0000   1.0000   1.0000   1.0000   1.0000   1.0000   1.0000   1.0000
     1.0000   1.0000   1.0000   1.0000   1.0000   1.0000   1.0000   1.0000
     1.0000   1.0000   1.0000   1.0000   1.0000   1.0000   1.0000   1.0000
     1.0000   1.0000   1.0000   1.0000   1.0000   1.0000   1.0000   1.0000
     1.0000   1.0000   1.0000   1.0000   1.0000   1.0000   1.0000   1.0000
     1.0000   1.0000   1.0000   1.0000   1.0000   1.0000   1.0000   1.0000
     1.0000   1.0000   1.0000   1.0000   1.0000   1.0000   1.0000   1.0000
     1.0000   1.0000   1.0000   1.0000   1.0000   1.0000   1.0000   1.0000
     1.0000   1.0000   1.0000   1.0000   1.0000   1.0000   1.0000   1.0000
     1.0000   1.0000   1.0000   1.0000   1.0000   1.0000   1.0000   1.0000
     1.0000   1.0000   1.0000   1.0000   1.0000   1.0000   1.0000   1.0000
     1.0000   1.0000   1.0000   1.0000   1.0000   1.0000   1.0000   1.0000
     1.0000   1.0000   1.0000   1.0000   1.0000   1.0000   1.0000   1.0000
     1.0000   1.0000   1.0000   1.0000   1.0000   1.0000   1.0000   1.0000
     1.0000   1.0000   1.0000   1.0000   1.0000   1.0000   1.0000   1.0000
     1.0000   1.0000   1.0000   1.0000   1.0000   1.0000   1.0000   1.0000
     1.0000   1.0000   1.0000   1.0000   1.0000   1.0000   1.0000   1.0000
     1.0000   1.0000   1.0000   1.0000   1.0000   1.0000   1.0000   1.0000
     1.0000   1.0000   1.0000   1.0000   1.0000   1.0000   1.0000   1.0000
     1.0000   1.0000   1.0000   1.0000   1.0000   1.0000   1.0000   1.0000
     1.0000   1.0000   1.0000   1.0000   1.0000   1.0000   1.0000   1.0000
     1.0000   1.0000   1.0000   1.0000   1.0000   1.0000   1.0000   1.0000
     1.0000   1.0000   1.0000   1.0000   1.0000   1.0000   1.0000   1.0000
     1.0000   1.0000   1.0000   1.0000   1.0000   1.0000   1.0000   1.0000
     1.0000   1.0000   1.0000   1.0000   1.0000   1.0000   1.0000   1.0000
     1.0000   1.0000   0.0000   0.0000   0.0000   0.0000   0.0000   0.0000
     0.0000   0.0000   0.0000   0.0000   0.0000   0.0000   0.0000   0.0000
     0.0000   0.0000   0.0000   0.0000

     the Fermi energy is    10.5807 ev

!    total energy              =  -41212.40754834 Ry
     estimated scf accuracy    <          4.1E-10 Ry
     smearing contrib. (-TS)   =      -0.00000000 Ry
     internal energy E=F+TS    =  -41212.40754834 Ry

     total magnetization       =    -2.00 Bohr mag/cell
     absolute magnetization    =     2.50 Bohr mag/cell

     convergence has been achieved in   2 iterations

     Using ACE for calculation of exact exchange
     ACE projected onto  1260 (nbndproj) and applied to  1260 (nbnd) bands

!!   total energy              =  -41212.40754834 Ry
     Harris-Foulkes estimate   =  -41212.40754834 Ry
     est. exchange err (dexx)  =          8.2E-10 Ry
     - averaged Fock potential =    2729.16693163 Ry
     + Fock energy (ACE)       =   -1364.58346655 Ry

     EXX self-consistency reached

     Writing all to output data dir temp/pwscf.save/
 
     init_run     :      9.00s CPU      9.52s WALL (       1 calls)
     electrons    :   3206.59s CPU   3282.07s WALL (      19 calls)

     Called by init_run:
     aceinit0     :      0.00s CPU      0.00s WALL (       1 calls)
     wfcinit      :      6.65s CPU      7.11s WALL (       1 calls)
     wfcinit:atom :      0.06s CPU      0.11s WALL (       2 calls)
     wfcinit:wfcr :      5.77s CPU      6.04s WALL (       2 calls)
     potinit      :      0.69s CPU      0.71s WALL (       1 calls)
     hinit0       :      1.53s CPU      1.56s WALL (       1 calls)

     Called by electrons:
     c_bands      :   3132.38s CPU   3205.15s WALL (      61 calls)
     sum_band     :     49.34s CPU     49.84s WALL (      61 calls)
     v_of_rho     :     23.25s CPU     23.92s WALL (      60 calls)
     v_h          :      0.40s CPU      0.44s WALL (      60 calls)
     v_xc         :     22.84s CPU     23.47s WALL (      60 calls)
     mix_rho      :      0.85s CPU      1.13s WALL (      61 calls)

     Called by c_bands:
     init_us_2    :      8.99s CPU      9.10s WALL (     246 calls)
     init_us_2:cp :      8.99s CPU      9.09s WALL (     246 calls)
     regterg      :   3048.69s CPU   3120.87s WALL (     122 calls)

     Called by sum_band:
     sum_band:wei :      0.02s CPU      0.03s WALL (      61 calls)
     sum_band:loo :     46.55s CPU     46.81s WALL (      61 calls)
     sum_band:buf :      2.45s CPU      2.46s WALL (     122 calls)
     sum_band:ini :      4.45s CPU      4.48s WALL (     122 calls)

     Called by *egterg:
     rdiaghg      :   1379.10s CPU   1383.79s WALL (     642 calls)
     regterg:over :     94.15s CPU     98.38s WALL (     562 calls)
     regterg:upda :     62.12s CPU     71.72s WALL (     562 calls)
     regterg:last :    125.88s CPU    147.39s WALL (     267 calls)
     h_psi        :   1269.35s CPU   1280.18s WALL (     686 calls)
     g_psi        :      3.28s CPU      3.29s WALL (     562 calls)

     Called by h_psi:
     h_psi:calbec :    215.28s CPU    215.97s WALL (     686 calls)
     vloc_psi     :    540.36s CPU    543.31s WALL (     686 calls)
     add_vuspsi   :    211.25s CPU    212.03s WALL (     686 calls)

     General routines
     calbec       :    395.04s CPU    396.58s WALL (    1323 calls)
     fft          :      3.21s CPU      3.66s WALL (     762 calls)
     ffts         :      0.27s CPU      0.32s WALL (      61 calls)
     fftw         :    464.44s CPU    466.99s WALL (  343640 calls)
     fftc         :  11677.12s CPU  11756.53s WALL (14902650 calls)
     fftcw        :     23.55s CPU     23.90s WALL (   41990 calls)
 
     Parallel routines

     EXX routines
     exx_grid     :      0.00s CPU      0.03s WALL (       1 calls)
     exxinit      :     30.80s CPU     36.51s WALL (      19 calls)
     vexx         :  16765.96s CPU  16893.40s WALL (      38 calls)
     matcalc      :    180.36s CPU    181.23s WALL (     637 calls)
     aceupdate    :     16.28s CPU     17.32s WALL (      38 calls)
     vexxace      :    413.68s CPU    422.25s WALL (     525 calls)
     aceinit      :  16799.21s CPU  16928.10s WALL (      38 calls)
 
     PWSCF        :      5h36m CPU      5h39m WALL

 
   This run was terminated on:   3:58: 8  14Jan2025            

=------------------------------------------------------------------------------=
   JOB DONE.
=------------------------------------------------------------------------------=
