  191  191   20    2
  0.1195271E+02  0.1299435E-08  0.1299435E-08  0.1561204E-08  0.5000000E-15
   1.0000000000000000E-004
  CAR 
 zno                                     
   1722      1   1056
 
  0.1262379E-14  0.1262379E-14  0.1262379E-14  0.1000000E+01
    1      -20.907498    -20.907498   1.000000   1.000000
    2      -20.729272    -20.729272   1.000000   1.000000
    3      -20.720452    -20.720452   1.000000   1.000000
    4      -20.597801    -20.597801   1.000000   1.000000
    5      -20.597680    -20.597680   1.000000   1.000000
    6      -20.594029    -20.594029   1.000000   1.000000
    7      -20.591365    -20.591365   1.000000   1.000000
    8      -20.591297    -20.591297   1.000000   1.000000
    9      -20.583819    -20.583819   1.000000   1.000000
   10      -20.463293    -20.463293   1.000000   1.000000
   11      -20.458677    -20.458677   1.000000   1.000000
   12      -20.458560    -20.458560   1.000000   1.000000
   13      -20.454208    -20.454208   1.000000   1.000000
   14      -20.452665    -20.452665   1.000000   1.000000
   15      -20.452640    -20.452640   1.000000   1.000000
   16      -20.451276    -20.451276   1.000000   1.000000
   17      -20.451266    -20.451266   1.000000   1.000000
   18      -20.449420    -20.449420   1.000000   1.000000
   19      -20.447077    -20.447077   1.000000   1.000000
   20      -20.446998    -20.446998   1.000000   1.000000
   21      -20.424933    -20.424933   1.000000   1.000000
   22      -20.348976    -20.348976   1.000000   1.000000
   23      -20.338169    -20.338169   1.000000   1.000000
   24      -20.215696    -20.215696   1.000000   1.000000
   25      -20.215663    -20.215663   1.000000   1.000000
   26      -20.207898    -20.207898   1.000000   1.000000
   27      -20.207866    -20.207866   1.000000   1.000000
   28      -20.207855    -20.207855   1.000000   1.000000
   29      -20.206652    -20.206652   1.000000   1.000000
   30      -20.200124    -20.200124   1.000000   1.000000
   31      -20.200111    -20.200111   1.000000   1.000000
   32      -20.196766    -20.196766   1.000000   1.000000
   33      -20.185989    -20.185989   1.000000   1.000000
   34      -20.173369    -20.173369   1.000000   1.000000
   35      -20.173275    -20.173275   1.000000   1.000000
   36      -20.170287    -20.170287   1.000000   1.000000
   37      -20.169859    -20.169859   1.000000   1.000000
   38      -20.169795    -20.169795   1.000000   1.000000
   39      -20.167903    -20.167903   1.000000   1.000000
   40      -20.167887    -20.167887   1.000000   1.000000
   41      -20.166180    -20.166180   1.000000   1.000000
   42      -20.163855    -20.163855   1.000000   1.000000
   43      -20.163784    -20.163784   1.000000   1.000000
   44      -20.162422    -20.162422   1.000000   1.000000
   45      -20.151493    -20.151493   1.000000   1.000000
   46      -20.148034    -20.148034   1.000000   1.000000
   47      -20.147896    -20.147896   1.000000   1.000000
   48      -20.147866    -20.147866   1.000000   1.000000
   49      -20.140643    -20.140643   1.000000   1.000000
   50      -20.139579    -20.139579   1.000000   1.000000
   51      -20.139574    -20.139575   1.000000   1.000000
   52      -20.139181    -20.139182   1.000000   1.000000
   53      -20.139170    -20.139170   1.000000   1.000000
   54      -20.136714    -20.136714   1.000000   1.000000
   55      -20.136708    -20.136708   1.000000   1.000000
   56      -20.134738    -20.134738   1.000000   1.000000
   57      -20.134729    -20.134729   1.000000   1.000000
   58      -20.133829    -20.133828   1.000000   1.000000
   59      -20.132969    -20.132969   1.000000   1.000000
   60      -20.130999    -20.131000   1.000000   1.000000
   61      -20.130988    -20.130988   1.000000   1.000000
   62      -20.129961    -20.129961   1.000000   1.000000
   63      -20.082556    -20.082556   1.000000   1.000000
   64      -20.037660    -20.037660   1.000000   1.000000
   65      -20.030852    -20.030852   1.000000   1.000000
   66      -20.030771    -20.030771   1.000000   1.000000
   67      -20.026151    -20.026151   1.000000   1.000000
   68      -20.025556    -20.025556   1.000000   1.000000
   69      -20.025520    -20.025520   1.000000   1.000000
   70      -20.020759    -20.020759   1.000000   1.000000
   71      -20.020716    -20.020716   1.000000   1.000000
   72      -20.020239    -20.020239   1.000000   1.000000
   73      -20.018786    -20.018786   1.000000   1.000000
   74      -20.018744    -20.018744   1.000000   1.000000
   75      -20.017965    -20.017965   1.000000   1.000000
   76      -20.016931    -20.016931   1.000000   1.000000
   77      -20.016923    -20.016923   1.000000   1.000000
   78      -20.014529    -20.014528   1.000000   1.000000
   79      -20.014355    -20.014355   1.000000   1.000000
   80      -20.014338    -20.014337   1.000000   1.000000
   81      -20.011486    -20.011486   1.000000   1.000000
   82      -20.011450    -20.011450   1.000000   1.000000
   83      -20.010395    -20.010395   1.000000   1.000000
   84      -20.009577    -20.009577   1.000000   1.000000
   85      -20.009566    -20.009566   1.000000   1.000000
   86      -20.008712    -20.008712   1.000000   1.000000
   87      -19.978804    -19.978804   1.000000   1.000000
   88      -19.967603    -19.967604   1.000000   1.000000
   89      -19.967596    -19.967596   1.000000   1.000000
   90      -19.962004    -19.962004   1.000000   1.000000
   91      -19.961969    -19.961969   1.000000   1.000000
   92      -19.960329    -19.960329   1.000000   1.000000
   93      -19.959033    -19.959033   1.000000   1.000000
   94      -19.957119    -19.957119   1.000000   1.000000
   95      -19.957111    -19.957111   1.000000   1.000000
   96       -8.091142     -8.091142   1.000000   1.000000
   97       -8.057885     -8.057885   1.000000   1.000000
   98       -8.057849     -8.057849   1.000000   1.000000
   99       -8.051470     -8.051470   1.000000   1.000000
  100       -8.049810     -8.049810   1.000000   1.000000
  101       -8.049725     -8.049725   1.000000   1.000000
  102       -8.026854     -8.026854   1.000000   1.000000
  103       -8.026815     -8.026815   1.000000   1.000000
  104       -7.991766     -7.991766   1.000000   1.000000
  105       -7.978922     -7.978922   1.000000   1.000000
  106       -7.978869     -7.978869   1.000000   1.000000
  107       -7.960720     -7.960720   1.000000   1.000000
  108       -7.954452     -7.954452   1.000000   1.000000
  109       -7.954377     -7.954377   1.000000   1.000000
  110       -7.952492     -7.952492   1.000000   1.000000
  111       -7.952456     -7.952456   1.000000   1.000000
  112       -7.949537     -7.949537   1.000000   1.000000
  113       -7.946167     -7.946167   1.000000   1.000000
  114       -7.942539     -7.942539   1.000000   1.000000
  115       -7.942511     -7.942511   1.000000   1.000000
  116       -7.941170     -7.941170   1.000000   1.000000
  117       -7.939627     -7.939627   1.000000   1.000000
  118       -7.939585     -7.939585   1.000000   1.000000
  119       -7.933640     -7.933640   1.000000   1.000000
  120       -7.930892     -7.930892   1.000000   1.000000
  121       -7.930848     -7.930848   1.000000   1.000000
  122       -7.920363     -7.920363   1.000000   1.000000
  123       -7.911955     -7.911955   1.000000   1.000000
  124       -7.911912     -7.911912   1.000000   1.000000
  125       -7.903712     -7.903712   1.000000   1.000000
  126       -7.903596     -7.903596   1.000000   1.000000
  127       -7.903546     -7.903546   1.000000   1.000000
  128       -7.879361     -7.879361   1.000000   1.000000
  129       -7.879329     -7.879330   1.000000   1.000000
  130       -7.879310     -7.879310   1.000000   1.000000
  131       -7.872704     -7.872704   1.000000   1.000000
  132       -7.860358     -7.860358   1.000000   1.000000
  133       -7.860289     -7.860289   1.000000   1.000000
  134       -7.854550     -7.854550   1.000000   1.000000
  135       -7.854498     -7.854498   1.000000   1.000000
  136       -7.854204     -7.854204   1.000000   1.000000
  137       -7.847897     -7.847897   1.000000   1.000000
  138       -7.847844     -7.847844   1.000000   1.000000
  139       -7.842783     -7.842783   1.000000   1.000000
  140       -7.837221     -7.837221   1.000000   1.000000
  141       -7.832832     -7.832832   1.000000   1.000000
  142       -7.832780     -7.832780   1.000000   1.000000
  143       -7.823638     -7.823638   1.000000   1.000000
  144       -7.823614     -7.823614   1.000000   1.000000
  145       -7.819842     -7.819841   1.000000   1.000000
  146       -7.819822     -7.819822   1.000000   1.000000
  147       -7.819387     -7.819387   1.000000   1.000000
  148       -7.814971     -7.814971   1.000000   1.000000
  149       -7.808688     -7.808688   1.000000   1.000000
  150       -7.802008     -7.802008   1.000000   1.000000
  151       -7.801978     -7.801978   1.000000   1.000000
  152       -7.801369     -7.801369   1.000000   1.000000
  153       -7.797341     -7.797341   1.000000   1.000000
  154       -7.796813     -7.796813   1.000000   1.000000
  155       -7.796787     -7.796787   1.000000   1.000000
  156       -7.792191     -7.792191   1.000000   1.000000
  157       -7.792169     -7.792169   1.000000   1.000000
  158       -7.789639     -7.789639   1.000000   1.000000
  159       -7.780527     -7.780527   1.000000   1.000000
  160       -7.779373     -7.779373   1.000000   1.000000
  161       -7.779346     -7.779346   1.000000   1.000000
  162       -7.774930     -7.774930   1.000000   1.000000
  163       -7.774896     -7.774896   1.000000   1.000000
  164       -7.773086     -7.773086   1.000000   1.000000
  165       -7.766326     -7.766326   1.000000   1.000000
  166       -7.766297     -7.766297   1.000000   1.000000
  167       -7.760341     -7.760341   1.000000   1.000000
  168       -7.760311     -7.760311   1.000000   1.000000
  169       -7.758780     -7.758780   1.000000   1.000000
  170       -7.757242     -7.757242   1.000000   1.000000
  171       -7.755378     -7.755378   1.000000   1.000000
  172       -7.755357     -7.755357   1.000000   1.000000
  173       -7.746807     -7.746807   1.000000   1.000000
  174       -7.746763     -7.746763   1.000000   1.000000
  175       -7.743103     -7.743103   1.000000   1.000000
  176       -7.737036     -7.737036   1.000000   1.000000
  177       -7.737006     -7.737006   1.000000   1.000000
  178       -7.734136     -7.734136   1.000000   1.000000
  179       -7.733665     -7.733665   1.000000   1.000000
  180       -7.732932     -7.732932   1.000000   1.000000
  181       -7.732901     -7.732901   1.000000   1.000000
  182       -7.721172     -7.721172   1.000000   1.000000
  183       -7.721152     -7.721152   1.000000   1.000000
  184       -7.718988     -7.718988   1.000000   1.000000
  185       -7.718973     -7.718973   1.000000   1.000000
  186       -7.715592     -7.715592   1.000000   1.000000
  187       -7.713838     -7.713838   1.000000   1.000000
  188       -7.713270     -7.713270   1.000000   1.000000
  189       -7.713235     -7.713235   1.000000   1.000000
  190       -7.709780     -7.709780   1.000000   1.000000
  191       -7.709658     -7.709658   1.000000   1.000000
  192       -7.707672     -7.707672   1.000000   1.000000
  193       -7.707651     -7.707651   1.000000   1.000000
  194       -7.703831     -7.703831   1.000000   1.000000
  195       -7.703822     -7.703822   1.000000   1.000000
  196       -7.692400     -7.692400   1.000000   1.000000
  197       -7.690769     -7.690769   1.000000   1.000000
  198       -7.690322     -7.690322   1.000000   1.000000
  199       -7.690276     -7.690276   1.000000   1.000000
  200       -7.681611     -7.681611   1.000000   1.000000
  201       -7.681566     -7.681566   1.000000   1.000000
  202       -7.676076     -7.676076   1.000000   1.000000
  203       -7.673426     -7.673426   1.000000   1.000000
  204       -7.673387     -7.673387   1.000000   1.000000
  205       -7.668544     -7.668544   1.000000   1.000000
  206       -7.668498     -7.668498   1.000000   1.000000
  207       -7.660484     -7.660484   1.000000   1.000000
  208       -7.656692     -7.656692   1.000000   1.000000
  209       -7.656614     -7.656614   1.000000   1.000000
  210       -7.654651     -7.654651   1.000000   1.000000
  211       -7.652266     -7.652266   1.000000   1.000000
  212       -7.633005     -7.633005   1.000000   1.000000
  213       -7.632962     -7.632962   1.000000   1.000000
  214       -7.631702     -7.631702   1.000000   1.000000
  215       -7.628999     -7.628999   1.000000   1.000000
  216       -7.628960     -7.628960   1.000000   1.000000
  217       -7.622354     -7.622354   1.000000   1.000000
  218       -7.612153     -7.612153   1.000000   1.000000
  219       -7.612108     -7.612108   1.000000   1.000000
  220       -7.610936     -7.610936   1.000000   1.000000
  221       -7.603959     -7.603959   1.000000   1.000000
  222       -7.603953     -7.603953   1.000000   1.000000
  223       -7.602441     -7.602441   1.000000   1.000000
  224       -7.602415     -7.602415   1.000000   1.000000
  225       -7.594161     -7.594161   1.000000   1.000000
  226       -7.593471     -7.593471   1.000000   1.000000
  227       -7.593420     -7.593420   1.000000   1.000000
  228       -7.587687     -7.587687   1.000000   1.000000
  229       -7.587676     -7.587676   1.000000   1.000000
  230       -7.581134     -7.581134   1.000000   1.000000
  231       -7.581116     -7.581116   1.000000   1.000000
  232       -7.572225     -7.572225   1.000000   1.000000
  233       -7.563767     -7.563767   1.000000   1.000000
  234       -7.559353     -7.559353   1.000000   1.000000
  235       -7.559319     -7.559319   1.000000   1.000000
  236       -7.552996     -7.552996   1.000000   1.000000
  237       -7.549964     -7.549964   1.000000   1.000000
  238       -7.549931     -7.549931   1.000000   1.000000
  239       -7.544664     -7.544664   1.000000   1.000000
  240       -7.544633     -7.544633   1.000000   1.000000
  241       -7.540448     -7.540448   1.000000   1.000000
  242       -7.535895     -7.535895   1.000000   1.000000
  243       -7.535869     -7.535869   1.000000   1.000000
  244       -7.534324     -7.534324   1.000000   1.000000
  245       -7.533344     -7.533344   1.000000   1.000000
  246       -7.526239     -7.526239   1.000000   1.000000
  247       -7.526199     -7.526199   1.000000   1.000000
  248       -7.520198     -7.520198   1.000000   1.000000
  249       -7.520168     -7.520168   1.000000   1.000000
  250       -7.511928     -7.511928   1.000000   1.000000
  251       -7.511460     -7.511460   1.000000   1.000000
  252       -7.511413     -7.511413   1.000000   1.000000
  253       -7.510784     -7.510784   1.000000   1.000000
  254       -7.510571     -7.510571   1.000000   1.000000
  255       -7.507760     -7.507760   1.000000   1.000000
  256       -7.507721     -7.507721   1.000000   1.000000
  257       -7.505563     -7.505563   1.000000   1.000000
  258       -7.505181     -7.505181   1.000000   1.000000
  259       -7.505141     -7.505141   1.000000   1.000000
  260       -7.501342     -7.501342   1.000000   1.000000
  261       -7.490266     -7.490266   1.000000   1.000000
  262       -7.490225     -7.490225   1.000000   1.000000
  263       -7.488857     -7.488857   1.000000   1.000000
  264       -7.486117     -7.486117   1.000000   1.000000
  265       -7.486081     -7.486081   1.000000   1.000000
  266       -7.482486     -7.482486   1.000000   1.000000
  267       -7.475309     -7.475309   1.000000   1.000000
  268       -7.475282     -7.475282   1.000000   1.000000
  269       -7.465393     -7.465393   1.000000   1.000000
  270       -7.464735     -7.464735   1.000000   1.000000
  271       -7.462045     -7.462045   1.000000   1.000000
  272       -7.462035     -7.462035   1.000000   1.000000
  273       -7.457162     -7.457162   1.000000   1.000000
  274       -7.457137     -7.457137   1.000000   1.000000
  275       -7.452756     -7.452756   1.000000   1.000000
  276       -7.451807     -7.451807   1.000000   1.000000
  277       -7.451795     -7.451795   1.000000   1.000000
  278       -7.451532     -7.451532   1.000000   1.000000
  279       -7.451510     -7.451510   1.000000   1.000000
  280       -7.447731     -7.447731   1.000000   1.000000
  281       -7.447722     -7.447722   1.000000   1.000000
  282       -7.447575     -7.447575   1.000000   1.000000
  283       -7.440694     -7.440694   1.000000   1.000000
  284       -7.440659     -7.440659   1.000000   1.000000
  285       -7.436473     -7.436473   1.000000   1.000000
  286       -7.435862     -7.435862   1.000000   1.000000
  287       -7.430403     -7.430403   1.000000   1.000000
  288       -7.430379     -7.430379   1.000000   1.000000
  289       -7.423328     -7.423328   1.000000   1.000000
  290       -7.423313     -7.423313   1.000000   1.000000
  291       -7.420392     -7.420392   1.000000   1.000000
  292       -7.418088     -7.418089   1.000000   1.000000
  293       -7.412490     -7.412490   1.000000   1.000000
  294       -7.412479     -7.412479   1.000000   1.000000
  295       -7.407593     -7.407593   1.000000   1.000000
  296       -7.407376     -7.407376   1.000000   1.000000
  297       -7.400952     -7.400952   1.000000   1.000000
  298       -7.400115     -7.400115   1.000000   1.000000
  299       -7.400085     -7.400085   1.000000   1.000000
  300       -7.392078     -7.392078   1.000000   1.000000
  301       -7.392067     -7.392067   1.000000   1.000000
  302       -7.379470     -7.379470   1.000000   1.000000
  303       -7.379453     -7.379453   1.000000   1.000000
  304       -7.372952     -7.372952   1.000000   1.000000
  305       -7.371167     -7.371167   1.000000   1.000000
  306       -7.362082     -7.362082   1.000000   1.000000
  307       -7.362063     -7.362063   1.000000   1.000000
  308       -7.359930     -7.359929   1.000000   1.000000
  309       -7.338099     -7.338099   1.000000   1.000000
  310       -7.338078     -7.338078   1.000000   1.000000
  311       -7.329972     -7.329972   1.000000   1.000000
  312       -7.329306     -7.329306   1.000000   1.000000
  313       -7.329295     -7.329295   1.000000   1.000000
  314       -7.303828     -7.303828   1.000000   1.000000
  315       -7.301495     -7.301495   1.000000   1.000000
  316       -7.301490     -7.301490   1.000000   1.000000
  317       -7.295437     -7.295438   1.000000   1.000000
  318       -7.291371     -7.291371   1.000000   1.000000
  319       -7.286978     -7.286978   1.000000   1.000000
  320       -7.286963     -7.286963   1.000000   1.000000
  321       -7.278862     -7.278862   1.000000   1.000000
  322       -7.278836     -7.278836   1.000000   1.000000
  323       -7.264795     -7.264795   1.000000   1.000000
  324       -7.264767     -7.264767   1.000000   1.000000
  325       -7.263568     -7.263568   1.000000   1.000000
  326       -7.248779     -7.248779   1.000000   1.000000
  327       -7.248767     -7.248767   1.000000   1.000000
  328       -7.247219     -7.247219   1.000000   1.000000
  329       -7.245400     -7.245400   1.000000   1.000000
  330       -7.245324     -7.245324   1.000000   1.000000
  331       -7.244659     -7.244659   1.000000   1.000000
  332       -7.244551     -7.244551   1.000000   1.000000
  333       -7.242026     -7.242026   1.000000   1.000000
  334       -7.239433     -7.239433   1.000000   1.000000
  335       -7.239405     -7.239405   1.000000   1.000000
  336       -7.238749     -7.238749   1.000000   1.000000
  337       -7.235902     -7.235902   1.000000   1.000000
  338       -7.235129     -7.235129   1.000000   1.000000
  339       -7.234601     -7.234601   1.000000   1.000000
  340       -7.233220     -7.233220   1.000000   1.000000
  341       -7.233200     -7.233200   1.000000   1.000000
  342       -7.227540     -7.227540   1.000000   1.000000
  343       -7.227493     -7.227493   1.000000   1.000000
  344       -7.227456     -7.227456   1.000000   1.000000
  345       -7.226115     -7.226115   1.000000   1.000000
  346       -7.226104     -7.226104   1.000000   1.000000
  347       -7.220645     -7.220645   1.000000   1.000000
  348       -7.219830     -7.219830   1.000000   1.000000
  349       -7.219812     -7.219812   1.000000   1.000000
  350       -7.206847     -7.206847   1.000000   1.000000
  351       -7.206832     -7.206832   1.000000   1.000000
  352       -7.206821     -7.206821   1.000000   1.000000
  353       -7.202107     -7.202107   1.000000   1.000000
  354       -7.175450     -7.175450   1.000000   1.000000
  355       -7.175443     -7.175443   1.000000   1.000000
  356       -7.139129     -7.139129   1.000000   1.000000
  357       -7.139109     -7.139109   1.000000   1.000000
  358       -7.132440     -7.132440   1.000000   1.000000
  359       -7.130146     -7.130146   1.000000   1.000000
  360       -7.123916     -7.123916   1.000000   1.000000
  361       -7.123880     -7.123880   1.000000   1.000000
  362       -7.108042     -7.108042   1.000000   1.000000
  363       -7.107962     -7.107962   1.000000   1.000000
  364       -7.104088     -7.104088   1.000000   1.000000
  365       -7.092142     -7.092142   1.000000   1.000000
  366       -7.092096     -7.092096   1.000000   1.000000
  367       -7.083223     -7.083223   1.000000   1.000000
  368       -7.079860     -7.079860   1.000000   1.000000
  369       -7.079852     -7.079852   1.000000   1.000000
  370       -7.063691     -7.063691   1.000000   1.000000
  371       -7.063343     -7.063343   1.000000   1.000000
  372       -7.063293     -7.063293   1.000000   1.000000
  373       -7.062586     -7.062586   1.000000   1.000000
  374       -7.058049     -7.058049   1.000000   1.000000
  375       -7.055904     -7.055904   1.000000   1.000000
  376       -7.055879     -7.055879   1.000000   1.000000
  377       -7.029273     -7.029272   1.000000   1.000000
  378       -7.029237     -7.029237   1.000000   1.000000
  379       -7.018451     -7.018451   1.000000   1.000000
  380       -6.988504     -6.988504   1.000000   1.000000
  381       -6.987256     -6.987256   1.000000   1.000000
  382       -6.987235     -6.987235   1.000000   1.000000
  383       -6.980859     -6.980859   1.000000   1.000000
  384       -6.979326     -6.979326   1.000000   1.000000
  385       -6.979293     -6.979293   1.000000   1.000000
  386       -6.976925     -6.976925   1.000000   1.000000
  387       -6.976834     -6.976834   1.000000   1.000000
  388       -6.972933     -6.972933   1.000000   1.000000
  389       -6.971735     -6.971735   1.000000   1.000000
  390       -6.969927     -6.969927   1.000000   1.000000
  391       -6.960908     -6.960908   1.000000   1.000000
  392       -6.960888     -6.960888   1.000000   1.000000
  393       -6.952411     -6.952411   1.000000   1.000000
  394       -6.952353     -6.952353   1.000000   1.000000
  395       -6.946886     -6.946886   1.000000   1.000000
  396       -6.946121     -6.946121   1.000000   1.000000
  397       -6.946100     -6.946100   1.000000   1.000000
  398       -6.926493     -6.926493   1.000000   1.000000
  399       -6.926466     -6.926466   1.000000   1.000000
  400       -6.913035     -6.913035   1.000000   1.000000
  401       -6.913030     -6.913030   1.000000   1.000000
  402       -6.911557     -6.911557   1.000000   1.000000
  403       -6.876575     -6.876575   1.000000   1.000000
  404       -6.866445     -6.866445   1.000000   1.000000
  405       -6.865879     -6.865879   1.000000   1.000000
  406       -6.865808     -6.865808   1.000000   1.000000
  407       -6.859064     -6.859064   1.000000   1.000000
  408       -6.855742     -6.855742   1.000000   1.000000
  409       -6.855711     -6.855711   1.000000   1.000000
  410       -6.849070     -6.849070   1.000000   1.000000
  411       -6.849056     -6.849056   1.000000   1.000000
  412       -6.844619     -6.844619   1.000000   1.000000
  413       -6.844597     -6.844597   1.000000   1.000000
  414       -6.843846     -6.843846   1.000000   1.000000
  415       -6.841822     -6.841822   1.000000   1.000000
  416       -6.836227     -6.836227   1.000000   1.000000
  417       -6.836215     -6.836215   1.000000   1.000000
  418       -6.832289     -6.832289   1.000000   1.000000
  419       -6.830174     -6.830174   1.000000   1.000000
  420       -6.830152     -6.830152   1.000000   1.000000
  421       -6.827123     -6.827123   1.000000   1.000000
  422       -6.821344     -6.821344   1.000000   1.000000
  423       -6.820814     -6.820814   1.000000   1.000000
  424       -6.820775     -6.820775   1.000000   1.000000
  425       -6.818353     -6.818353   1.000000   1.000000
  426       -6.816934     -6.816934   1.000000   1.000000
  427       -6.816913     -6.816913   1.000000   1.000000
  428       -6.814597     -6.814597   1.000000   1.000000
  429       -6.814593     -6.814593   1.000000   1.000000
  430       -6.813241     -6.813241   1.000000   1.000000
  431       -6.813040     -6.813040   1.000000   1.000000
  432       -6.813033     -6.813033   1.000000   1.000000
  433       -6.812856     -6.812856   1.000000   1.000000
  434       -6.812181     -6.812181   1.000000   1.000000
  435       -6.812152     -6.812152   1.000000   1.000000
  436       -6.808768     -6.808768   1.000000   1.000000
  437       -6.807582     -6.807582   1.000000   1.000000
  438       -6.807541     -6.807541   1.000000   1.000000
  439       -6.806219     -6.806219   1.000000   1.000000
  440       -6.804218     -6.804218   1.000000   1.000000
  441       -6.804213     -6.804213   1.000000   1.000000
  442       -6.802076     -6.802076   1.000000   1.000000
  443       -6.800689     -6.800689   1.000000   1.000000
  444       -6.800676     -6.800676   1.000000   1.000000
  445       -6.798840     -6.798840   1.000000   1.000000
  446       -6.796997     -6.796997   1.000000   1.000000
  447       -6.796956     -6.796956   1.000000   1.000000
  448       -6.795377     -6.795377   1.000000   1.000000
  449       -6.794994     -6.794994   1.000000   1.000000
  450       -6.794981     -6.794981   1.000000   1.000000
  451       -6.781712     -6.781712   1.000000   1.000000
  452       -6.781686     -6.781686   1.000000   1.000000
  453       -6.781670     -6.781670   1.000000   1.000000
  454       -6.769861     -6.769861   1.000000   1.000000
  455       -6.769839     -6.769839   1.000000   1.000000
  456       -6.767127     -6.767127   1.000000   1.000000
  457       -6.767115     -6.767115   1.000000   1.000000
  458       -6.764482     -6.764482   1.000000   1.000000
  459       -6.749978     -6.749978   1.000000   1.000000
  460       -6.749944     -6.749944   1.000000   1.000000
  461       -6.747413     -6.747413   1.000000   1.000000
  462       -6.743523     -6.743523   1.000000   1.000000
  463       -6.742097     -6.742097   1.000000   1.000000
  464       -6.742062     -6.742062   1.000000   1.000000
  465       -6.740451     -6.740451   1.000000   1.000000
  466       -6.736020     -6.736020   1.000000   1.000000
  467       -6.735992     -6.735992   1.000000   1.000000
  468       -6.731579     -6.731579   1.000000   1.000000
  469       -6.727603     -6.727603   1.000000   1.000000
  470       -6.727564     -6.727564   1.000000   1.000000
  471       -6.724809     -6.724809   1.000000   1.000000
  472       -6.724761     -6.724761   1.000000   1.000000
  473       -6.717675     -6.717675   1.000000   1.000000
  474       -6.716646     -6.716646   1.000000   1.000000
  475       -6.716593     -6.716593   1.000000   1.000000
  476       -6.708120     -6.708120   1.000000   1.000000
  477       -6.705233     -6.705233   1.000000   1.000000
  478       -6.705211     -6.705211   1.000000   1.000000
  479       -6.703741     -6.703741   1.000000   1.000000
  480       -6.702937     -6.702937   1.000000   1.000000
  481       -6.702878     -6.702878   1.000000   1.000000
  482       -6.701761     -6.701761   1.000000   1.000000
  483       -6.701739     -6.701739   1.000000   1.000000
  484       -6.700680     -6.700680   1.000000   1.000000
  485       -6.699385     -6.699385   1.000000   1.000000
  486       -6.697795     -6.697795   1.000000   1.000000
  487       -6.697734     -6.697734   1.000000   1.000000
  488       -6.695833     -6.695833   1.000000   1.000000
  489       -6.695829     -6.695829   1.000000   1.000000
  490       -6.695717     -6.695717   1.000000   1.000000
  491       -6.680977     -6.680977   1.000000   1.000000
  492       -6.680922     -6.680922   1.000000   1.000000
  493       -6.677349     -6.677349   1.000000   1.000000
  494       -6.677222     -6.677222   1.000000   1.000000
  495       -6.677194     -6.677194   1.000000   1.000000
  496       -6.668565     -6.668565   1.000000   1.000000
  497       -6.668558     -6.668558   1.000000   1.000000
  498       -6.666823     -6.666823   1.000000   1.000000
  499       -6.665769     -6.665769   1.000000   1.000000
  500       -6.665751     -6.665751   1.000000   1.000000
  501       -6.657135     -6.657135   1.000000   1.000000
  502       -6.657025     -6.657025   1.000000   1.000000
  503       -6.656975     -6.656975   1.000000   1.000000
  504       -6.653050     -6.653050   1.000000   1.000000
  505       -6.653009     -6.653009   1.000000   1.000000
  506       -6.652039     -6.652039   1.000000   1.000000
  507       -6.651820     -6.651820   1.000000   1.000000
  508       -6.651798     -6.651798   1.000000   1.000000
  509       -6.650641     -6.650641   1.000000   1.000000
  510       -6.645590     -6.645590   1.000000   1.000000
  511       -6.637225     -6.637225   1.000000   1.000000
  512       -6.637193     -6.637193   1.000000   1.000000