       N       E                     dE             d eps       ncg     rms          ort
DAV:   1     0.381271912137E+05    0.38127E+05   -0.62048E+05  1056   0.240E+03
DAV:   2     0.162826414989E+05   -0.21845E+05   -0.20450E+05  1056   0.675E+02
DAV:   3     0.851865029252E+04   -0.77640E+04   -0.71265E+04  1056   0.318E+02
DAV:   4     0.664849116903E+04   -0.18702E+04   -0.18014E+04  1056   0.166E+02
DAV:   5     0.627497033663E+04   -0.37352E+03   -0.36602E+03  1056   0.701E+01
SDA:   6    -0.982324577796E+03   -0.72573E+04   -0.32317E+03  1056   0.108E+04 0.000E+00
DMP:   7    -0.114185981303E+04   -0.15954E+03   -0.45294E+02  1056   0.142E+03 0.213E+02
DMP:   8    -0.116202863921E+04   -0.20169E+02   -0.55206E+02  1056   0.190E+03-0.144E+02
DMP:   9    -0.119567833404E+04   -0.33650E+02   -0.13830E+02  1056   0.293E+02 0.380E+02
DMP:  10    -0.119967102996E+04   -0.39927E+01   -0.83150E+01  1056   0.367E+02-0.203E+02
DMP:  11    -0.120492096994E+04   -0.52499E+01   -0.37405E+01  1056   0.918E+01 0.745E+01
DMP:  12    -0.120667968658E+04   -0.17587E+01   -0.14666E+01  1056   0.516E+01-0.608E+00
DMP:  13    -0.120764295149E+04   -0.96326E+00   -0.86708E+00  1056   0.220E+01 0.156E+01
DMP:  14    -0.120801645673E+04   -0.37351E+00   -0.21665E+00  1056   0.899E+00-0.401E+00
DMP:  15    -0.120815231600E+04   -0.13586E+00   -0.16836E+00  1056   0.480E+00 0.184E+00
DMP:  16    -0.120822635142E+04   -0.74035E-01   -0.18312E-01  1056   0.909E-01-0.676E-01
DMP:  17    -0.120823213149E+04   -0.57801E-02   -0.36080E-01  1056   0.130E+00-0.224E-01
DMP:  18    -0.120825400948E+04   -0.21878E-01   -0.75677E-02  1056   0.137E-01 0.261E-01
DMP:  19    -0.120825541844E+04   -0.14090E-02   -0.44438E-02  1056   0.217E-01-0.155E-01
DMP:  20    -0.120825865022E+04   -0.32318E-02   -0.29755E-02  1056   0.696E-02 0.669E-02
DMP:  21    -0.120825994556E+04   -0.12953E-02   -0.39067E-03  1056   0.192E-02-0.140E-02
DMP:  22    -0.120826015838E+04   -0.21281E-03   -0.64399E-03  1056   0.210E-02 0.108E-03
DMP:  23    -0.120826051599E+04   -0.35762E-03   -0.14947E-03  1056   0.371E-03 0.289E-03
DMP:  24    -0.120826059325E+04   -0.77257E-04   -0.10813E-03  1056   0.351E-03 0.224E-04
DMP:  25    -0.120826067036E+04   -0.77110E-04   -0.48566E-04  1056   0.106E-03 0.127E-03
DMP:  26    -0.120826070084E+04   -0.30481E-04   -0.21030E-04  1056   0.599E-04 0.231E-04
DMP:  27    -0.120826071559E+04   -0.14750E-04   -0.13342E-04  1056   0.312E-04 0.301E-04
DMP:  28    -0.120826072230E+04   -0.67115E-05   -0.41154E-05  1056   0.980E-05 0.886E-05
DMP:  29    -0.120826072506E+04   -0.27548E-05   -0.32596E-05  1056   0.805E-05 0.638E-05
DMP:  30    -0.120826072795E+04   -0.28938E-05   -0.14480E-05  1056   0.237E-05 0.557E-05
DMP:  31    -0.120826072932E+04   -0.13690E-05   -0.74173E-06  1056   0.155E-05 0.208E-05
DMP:  32    -0.120826072995E+04   -0.63032E-06   -0.55708E-06  1056   0.108E-05 0.175E-05
   1 F= -.12082607E+04 E0= -.12082607E+04  d E =-.120826E+04  mag=     0.0000
       N       E                     dE             d eps       ncg     rms          ort
SDA:   1    -0.120825257021E+04    0.81591E-02   -0.55942E-02  1056   0.186E-01 0.000E+00
DMP:   2    -0.120825704589E+04   -0.44757E-02   -0.37089E-02  1056   0.742E-02 0.112E-01
DMP:   3    -0.120825969080E+04   -0.26449E-02   -0.13840E-02  1056   0.229E-02 0.527E-02
DMP:   4    -0.120826060117E+04   -0.91037E-03   -0.40983E-03  1056   0.723E-03 0.146E-02
DMP:   5    -0.120826082861E+04   -0.22744E-03   -0.85641E-04  1056   0.219E-03 0.150E-03
DMP:   6    -0.120826085905E+04   -0.30444E-04   -0.32020E-04  1056   0.143E-03-0.823E-04
DMP:   7    -0.120826087677E+04   -0.17721E-04   -0.32221E-04  1056   0.102E-03 0.117E-04
DMP:   8    -0.120826090039E+04   -0.23615E-04   -0.21678E-04  1056   0.501E-04 0.502E-04
DMP:   9    -0.120826091619E+04   -0.15800E-04   -0.10667E-04  1056   0.209E-04 0.332E-04
DMP:  10    -0.120826092387E+04   -0.76813E-05   -0.46942E-05  1056   0.874E-05 0.156E-04
DMP:  11    -0.120826092716E+04   -0.32894E-05   -0.18578E-05  1056   0.343E-05 0.625E-05
DMP:  12    -0.120826092841E+04   -0.12526E-05   -0.73153E-06  1056   0.149E-05 0.215E-05
DMP:  13    -0.120826092891E+04   -0.49689E-06   -0.34108E-06  1056   0.748E-06 0.880E-06
   2 F= -.12082609E+04 E0= -.12082609E+04  d E =-.198955E-03  mag=    -0.0000
       N       E                     dE             d eps       ncg     rms          ort
SDA:   1    -0.120826026446E+04    0.66395E-03   -0.46388E-03  1056   0.155E-02 0.000E+00
DMP:   2    -0.120826063573E+04   -0.37128E-03   -0.30749E-03  1056   0.615E-03 0.929E-03
DMP:   3    -0.120826085541E+04   -0.21968E-03   -0.11527E-03  1056   0.190E-03 0.440E-03
DMP:   4    -0.120826093155E+04   -0.76142E-04   -0.34540E-04  1056   0.607E-04 0.123E-03
DMP:   5    -0.120826095097E+04   -0.19420E-04   -0.74923E-05  1056   0.187E-04 0.143E-04
DMP:   6    -0.120826095384E+04   -0.28698E-05   -0.28427E-05  1056   0.120E-04-0.577E-05
DMP:   7    -0.120826095545E+04   -0.16070E-05   -0.27079E-05  1056   0.844E-05 0.134E-05
DMP:   8    -0.120826095743E+04   -0.19783E-05   -0.17980E-05  1056   0.413E-05 0.421E-05
DMP:   9    -0.120826095873E+04   -0.13091E-05   -0.88338E-06  1056   0.173E-05 0.274E-05
DMP:  10    -0.120826095937E+04   -0.63897E-06   -0.39446E-06  1056   0.739E-06 0.130E-05
   3 F= -.12082610E+04 E0= -.12082610E+04  d E =-.229422E-03  mag=    -0.0000
       N       E                     dE             d eps       ncg     rms          ort
SDA:   1    -0.120825826292E+04    0.26958E-02   -0.18201E-02  1056   0.607E-02 0.000E+00
DMP:   2    -0.120825971884E+04   -0.14559E-02   -0.12044E-02  1056   0.241E-02 0.364E-02
DMP:   3    -0.120826057781E+04   -0.85897E-03   -0.44869E-03  1056   0.740E-03 0.171E-02
DMP:   4    -0.120826087316E+04   -0.29536E-03   -0.13335E-03  1056   0.235E-03 0.473E-03
DMP:   5    -0.120826094766E+04   -0.74500E-04   -0.28874E-04  1056   0.732E-04 0.521E-04
DMP:   6    -0.120826095859E+04   -0.10927E-04   -0.11088E-04  1056   0.472E-04-0.233E-04
DMP:   7    -0.120826096486E+04   -0.62685E-05   -0.10549E-04  1056   0.330E-04 0.501E-05
DMP:   8    -0.120826097255E+04   -0.76884E-05   -0.69611E-05  1056   0.161E-04 0.162E-04
DMP:   9    -0.120826097761E+04   -0.50600E-05   -0.34243E-05  1056   0.676E-05 0.105E-04
DMP:  10    -0.120826098008E+04   -0.24687E-05   -0.15263E-05  1056   0.287E-05 0.502E-05
DMP:  11    -0.120826098115E+04   -0.10766E-05   -0.61883E-06  1056   0.115E-05 0.207E-05
DMP:  12    -0.120826098157E+04   -0.42246E-06   -0.24967E-06  1056   0.501E-06 0.749E-06
   4 F= -.12082610E+04 E0= -.12082610E+04  d E =-.251623E-03  mag=    -0.0000
       N       E                     dE             d eps       ncg     rms          ort
SDA:   1    -0.120825353843E+04    0.74427E-02   -0.49683E-02  1056   0.166E-01 0.000E+00
DMP:   2    -0.120825753405E+04   -0.39956E-02   -0.33598E-02  1056   0.675E-02 0.101E-01
DMP:   3    -0.120825994827E+04   -0.24142E-02   -0.12726E-02  1056   0.208E-02 0.490E-02
DMP:   4    -0.120826079170E+04   -0.84343E-03   -0.37342E-03  1056   0.635E-03 0.138E-02
DMP:   5    -0.120826099892E+04   -0.20722E-03   -0.72996E-04  1056   0.183E-03 0.137E-03
DMP:   6    -0.120826102333E+04   -0.24404E-04   -0.27156E-04  1056   0.126E-03-0.806E-04
DMP:   7    -0.120826103852E+04   -0.15189E-04   -0.29170E-04  1056   0.925E-04 0.108E-04
DMP:   8    -0.120826106010E+04   -0.21579E-04   -0.19798E-04  1056   0.454E-04 0.467E-04
DMP:   9    -0.120826107456E+04   -0.14461E-04   -0.97304E-05  1056   0.190E-04 0.305E-04
DMP:  10    -0.120826108155E+04   -0.69947E-05   -0.42221E-05  1056   0.781E-05 0.142E-04
DMP:  11    -0.120826108448E+04   -0.29311E-05   -0.16116E-05  1056   0.297E-05 0.543E-05
DMP:  12    -0.120826108555E+04   -0.10721E-05   -0.62866E-06  1056   0.132E-05 0.175E-05
DMP:  13    -0.120826108599E+04   -0.43106E-06   -0.30813E-06  1056   0.696E-06 0.749E-06
   5 F= -.12082611E+04 E0= -.12082611E+04  d E =-.104411E-03  mag=    -0.0000
