 vasp.5.4.4.18Apr17-6-g9f103f2a35 (build Jul  5 2023 12:40:17) gamma-only        
 executed on NVIDIA22.7_CrayMPICH date 2024.01.19  14:45:00
 running on  768 total cores
 distrk:  each k-point on  384 cores,    2 groups
 distr:  one band on NCORES_PER_BAND=   8 cores,   48 groups


--------------------------------------------------------------------------------------------------------


 INCAR:
 POTCAR:    PAW_PBE Zn 06Sep2000                  
 POTCAR:    PAW_PBE O 08Apr2002                   

 ----------------------------------------------------------------------------- 
|                                                                             |
|           W    W    AA    RRRRR   N    N  II  N    N   GGGG   !!!           |
|           W    W   A  A   R    R  NN   N  II  NN   N  G    G  !!!           |
|           W    W  A    A  R    R  N N  N  II  N N  N  G       !!!           |
|           W WW W  AAAAAA  RRRRR   N  N N  II  N  N N  G  GGG   !            |
|           WW  WW  A    A  R   R   N   NN  II  N   NN  G    G                |
|           W    W  A    A  R    R  N    N  II  N    N   GGGG   !!!           |
|                                                                             |
|      For optimal performance we recommend to set                            |
|        NCORE= 4 - approx SQRT( number of cores)                             |
|      NCORE specifies how many cores store one orbital (NPAR=cpu/NCORE).     |
|      This setting can  greatly improve the performance of VASP for DFT.     |
|      The default,   NCORE=1            might be grossly inefficient         |
|      on modern multi-core architectures or massively parallel machines.     |
|      Do your own testing !!!!                                               |
|      Unfortunately you need to use the default for GW and RPA calculations. |
|      (for HF NCORE is supported but not extensively tested yet)             |
|                                                                             |
 ----------------------------------------------------------------------------- 


 ----------------------------------------------------------------------------- 
|                                                                             |
|           W    W    AA    RRRRR   N    N  II  N    N   GGGG   !!!           |
|           W    W   A  A   R    R  NN   N  II  NN   N  G    G  !!!           |
|           W    W  A    A  R    R  N N  N  II  N N  N  G       !!!           |
|           W WW W  AAAAAA  RRRRR   N  N N  II  N  N N  G  GGG   !            |
|           WW  WW  A    A  R   R   N   NN  II  N   NN  G    G                |
|           W    W  A    A  R    R  N    N  II  N    N   GGGG   !!!           |
|                                                                             |
|      You have enabled k-point parallelism (KPAR>1).                         |
|      This developmental code was originally  written by Paul Kent at ORNL,  |
|      and carefully double checked in Vienna.                                |
|      GW as well as linear response parallelism added by Martijn Marsman     |
|      and Georg Kresse.                                                      |
|      Carefully verify results versus KPAR=1.                                |
|      Report problems to Paul Kent and Vienna.                               |
|                                                                             |
 ----------------------------------------------------------------------------- 

 POTCAR:    PAW_PBE Zn 06Sep2000                  
   VRHFIN =Zn: d10 p2                                                           
   LEXCH  = PE                                                                  
   EATOM  =  1748.8345 eV,  128.5357 Ry                                         
                                                                                
   TITEL  = PAW_PBE Zn 06Sep2000                                                
   LULTRA =        F    use ultrasoft PP ?                                      
   IUNSCR =        1    unscreen: 0-lin 1-nonlin 2-no                           
   RPACOR =    2.000    partial core radius                                     
   POMASS =   65.390; ZVAL   =   12.000    mass and valenz                      
   RCORE  =    2.300    outmost cutoff radius                                   
   RWIGS  =    2.400; RWIGS  =    1.270    wigner-seitz radius (au A)           
   ENMAX  =  276.723; ENMIN  =  207.542 eV                                      
   RCLOC  =    1.828    cutoff for local pot                                    
   LCOR   =        T    correct aug charges                                     
   LPAW   =        T    paw PP                                                  
   EAUG   =  575.892                                                            
   DEXC   =    0.000                                                            
   RMAX   =    2.347    core radius for proj-oper                               
   RAUG   =    1.300    factor for augmentation sphere                          
   RDEP   =    2.324    radius for radial grids                                 
   RDEPT  =    1.788    core radius for aug-charge                              
                                                                                
   Atomic configuration                                                         
    9 entries                                                                   
     n  l   j            E        occ.                                          
     1  0  0.50     -9524.6913   2.0000                                         
     2  0  0.50     -1158.1882   2.0000                                         
     2  1  1.50     -1003.8506   6.0000                                         
     3  0  0.50      -129.2194   2.0000                                         
     3  1  1.50       -83.3890   6.0000                                         
     3  2  2.50       -10.1410  10.0000                                         
     4  0  0.50        -5.9785   2.0000                                         
     4  1  0.50        -4.0817   0.0000                                         
     4  3  2.50        -1.3606   0.0000                                         
   Description                                                                  
     l       E           TYP  RCUT    TYP  RCUT                                 
     2    -10.1410010     23  2.300                                             
     2    -11.5015836     23  2.300                                             
     0     -5.9785163     23  2.300                                             
     0      1.1858015     23  2.300                                             
     1     -2.7211652     23  2.300                                             
     1     13.2444212     23  2.300                                             
  local pseudopotential read in
  partial core-charges read in
  partial kinetic energy density read in
  atomic valenz-charges read in
  non local Contribution for L=            2  read in
    real space projection operators read in
  non local Contribution for L=            2  read in
    real space projection operators read in
  non local Contribution for L=            0  read in
    real space projection operators read in
  non local Contribution for L=            0  read in
    real space projection operators read in
  non local Contribution for L=            1  read in
    real space projection operators read in
  non local Contribution for L=            1  read in
    real space projection operators read in
    PAW grid and wavefunctions read in
 
   number of l-projection  operators is LMAX  =            6
   number of lm-projection operators is LMMAX =           18
 
 POTCAR:    PAW_PBE O 08Apr2002                   
   VRHFIN =O: s2p4                                                              
   LEXCH  = PE                                                                  
   EATOM  =   432.3788 eV,   31.7789 Ry                                         
                                                                                
   TITEL  = PAW_PBE O 08Apr2002                                                 
   LULTRA =        F    use ultrasoft PP ?                                      
   IUNSCR =        1    unscreen: 0-lin 1-nonlin 2-no                           
   RPACOR =    1.200    partial core radius                                     
   POMASS =   16.000; ZVAL   =    6.000    mass and valenz                      
   RCORE  =    1.520    outmost cutoff radius                                   
   RWIGS  =    1.550; RWIGS  =    0.820    wigner-seitz radius (au A)           
   ENMAX  =  400.000; ENMIN  =  300.000 eV                                      
   ICORE  =        2    local potential                                         
   LCOR   =        T    correct aug charges                                     
   LPAW   =        T    paw PP                                                  
   EAUG   =  605.392                                                            
   DEXC   =    0.000                                                            
   RMAX   =    1.553    core radius for proj-oper                               
   RAUG   =    1.300    factor for augmentation sphere                          
   RDEP   =    1.550    radius for radial grids                                 
   RDEPT  =    1.329    core radius for aug-charge                              
                                                                                
   Atomic configuration                                                         
    4 entries                                                                   
     n  l   j            E        occ.                                          
     1  0  0.50      -514.6923   2.0000                                         
     2  0  0.50       -23.9615   2.0000                                         
     2  1  0.50        -9.0305   4.0000                                         
     3  2  1.50        -9.5241   0.0000                                         
   Description                                                                  
     l       E           TYP  RCUT    TYP  RCUT                                 
     0    -23.9615318     23  1.200                                             
     0     -9.5240782     23  1.200                                             
     1     -9.0304911     23  1.520                                             
     1      8.1634956     23  1.520                                             
     2     -9.5240782      7  1.500                                             
  local pseudopotential read in
  partial core-charges read in
  partial kinetic energy density read in
  kinetic energy density of atom read in
  atomic valenz-charges read in
  non local Contribution for L=            0  read in
    real space projection operators read in
  non local Contribution for L=            0  read in
    real space projection operators read in
  non local Contribution for L=            1  read in
    real space projection operators read in
  non local Contribution for L=            1  read in
    real space projection operators read in
    PAW grid and wavefunctions read in
 
   number of l-projection  operators is LMAX  =            4
   number of lm-projection operators is LMMAX =            8
 
 Optimization of the real space projectors (new method)

 maximal supplied QI-value         = 16.25
 optimisation between [QCUT,QGAM] = [ 10.24, 20.48] = [ 29.35,117.42] Ry 
 Optimized for a Real-space Cutoff    1.38 Angstroem

   l    n(q)    QCUT    max X(q) W(low)/X(q) W(high)/X(q)  e(spline) 
   2      7    10.239    46.356    0.21E-03    0.48E-03    0.10E-06
   2      7    10.239    41.843    0.21E-03    0.50E-03    0.10E-06
   0      8    10.239    48.958    0.37E-03    0.79E-04    0.11E-06
   0      8    10.239    32.776    0.35E-03    0.73E-04    0.10E-06
   1      8    10.239    17.787    0.49E-03    0.70E-03    0.14E-06
   1      8    10.239    14.435    0.42E-03    0.61E-03    0.13E-06
 Optimization of the real space projectors (new method)

 maximal supplied QI-value         = 24.76
 optimisation between [QCUT,QGAM] = [ 10.15, 20.30] = [ 28.85,115.39] Ry 
 Optimized for a Real-space Cutoff    1.38 Angstroem

   l    n(q)    QCUT    max X(q) W(low)/X(q) W(high)/X(q)  e(spline) 
   0      8    10.150    20.381    0.22E-03    0.32E-03    0.29E-06
   0      8    10.150    15.268    0.23E-03    0.35E-03    0.30E-06
   1      8    10.150     5.964    0.46E-03    0.53E-03    0.21E-06
   1      8    10.150     5.382    0.38E-03    0.45E-03    0.19E-06
  PAW_PBE Zn 06Sep2000                  :
 energy of atom  1       EATOM=-1748.8345
 kinetic energy error for atom=    0.0107 (will be added to EATOM!!)
  PAW_PBE O 08Apr2002                   :
 energy of atom  2       EATOM= -432.3788
 kinetic energy error for atom=    0.1156 (will be added to EATOM!!)
 
 
 POSCAR: Zn2 O2                                  
  positions in direct lattice
  velocities in cartesian coordinates
 exchange correlation table for  LEXCH =        8
   RHO(1)=    0.500       N(1)  =     2000
   RHO(2)=  100.500       N(2)  =     4000
 


--------------------------------------------------------------------------------------------------------


 ion  position               nearest neighbor table
   1  0.084  0.167  0.003- 164 1.97 149 1.98 161 1.98  97 1.99
   2  0.084  0.167  0.336- 159 1.97 147 1.97 162 1.98  98 1.99
   3  0.084  0.168  0.668- 148 1.97 160 1.97 163 1.98  99 1.99
   4  0.084  0.417  0.003- 164 1.97 152 1.98 167 1.98 100 1.99
   5  0.084  0.417  0.336- 165 1.97 150 1.97 162 1.98 101 1.99
   6  0.084  0.416  0.668- 151 1.97 166 1.97 163 1.98 102 1.99
   7  0.083  0.667  0.002- 158 1.97 155 1.97 167 1.98 103 1.99
   8  0.083  0.667  0.336- 165 1.97 156 1.97 153 1.97 104 1.99
   9  0.083  0.667  0.669- 166 1.97 157 1.98 154 1.98 105 1.99
  10  0.083  0.917  0.002- 146 1.97 158 1.97 161 1.98 106 1.99
  11  0.083  0.917  0.336- 159 1.97 144 1.97 156 1.97 107 1.99
  12  0.083  0.917  0.669- 160 1.97 145 1.98 157 1.98 108 1.99
  13  0.333  0.167  0.003- 176 1.97 173 1.98 161 1.98 109 1.99
  14  0.333  0.167  0.336- 159 1.97 171 1.97 174 1.98 110 1.99
  15  0.334  0.168  0.668- 172 1.97 160 1.97 175 1.98 111 1.99
  16  0.333  0.417  0.002- 179 1.97 164 1.97 176 1.97 112 1.98
  17  0.333  0.417  0.347- 177 1.99 162 1.99 174 1.99  83 2.94  68 2.94  80 2.94
  18  0.333  0.417  0.670- 113 1.97 178 1.97 163 1.97 175 1.97
  19  0.333  0.666  0.003- 179 1.97 170 1.98 167 1.98 114 1.99
  20  0.333  0.666  0.336- 165 1.97 168 1.97 177 1.98 115 1.99
  21  0.334  0.666  0.668- 169 1.97 166 1.97 178 1.98 116 1.99
  22  0.333  0.917  0.003- 158 1.97 173 1.97 170 1.98 117 1.99
  23  0.334  0.917  0.336- 156 1.98 171 1.98 168 1.98 118 1.99
  24  0.334  0.917  0.669- 172 1.98 169 1.98 157 1.98 119 1.99
  25  0.583  0.167  0.002- 185 1.97 188 1.98 173 1.98 120 1.99
  26  0.583  0.167  0.336- 183 1.98 186 1.98 171 1.98 121 1.98
  27  0.583  0.167  0.669- 187 1.98 172 1.98 184 1.98 122 1.99
  28  0.583  0.417  0.003- 176 1.97 188 1.98 191 1.98 123 1.99
  29  0.583  0.417  0.336- 189 1.97 186 1.97 174 1.98 124 1.99
  30  0.582  0.416  0.668- 187 1.97 190 1.97 175 1.98 125 1.99
  31  0.583  0.666  0.003- 179 1.97 182 1.98 191 1.98 126 1.99
  32  0.583  0.666  0.336- 189 1.97 180 1.97 177 1.98 127 1.99
  33  0.582  0.666  0.668- 181 1.97 190 1.97 178 1.98 128 1.99
  34  0.583  0.917  0.002- 185 1.97 170 1.98 182 1.98 129 1.99
  35  0.583  0.917  0.336- 183 1.98 168 1.98 180 1.98 130 1.98
  36  0.583  0.917  0.669- 169 1.98 181 1.98 184 1.98 131 1.99
  37  0.833  0.167  0.002- 185 1.97 152 1.98 149 1.98 132 1.99
  38  0.833  0.167  0.336- 183 1.98 150 1.98 147 1.98 133 1.98
  39  0.833  0.167  0.669- 151 1.98 148 1.98 184 1.98 134 1.99
  40  0.833  0.417  0.003- 155 1.97 188 1.98 152 1.98 135 1.99
  41  0.833  0.416  0.336- 153 1.98 186 1.98 150 1.98 136 1.99
  42  0.833  0.416  0.669- 154 1.98 187 1.98 151 1.98 137 1.99
  43  0.833  0.667  0.002- 146 1.97 155 1.97 191 1.98 138 1.99
  44  0.833  0.667  0.336- 189 1.97 144 1.97 153 1.97 139 1.99
  45  0.833  0.667  0.669- 190 1.97 145 1.98 154 1.98 140 1.99
  46  0.833  0.917  0.003- 146 1.97 149 1.97 182 1.98 141 1.99
  47  0.833  0.917  0.336- 144 1.98 147 1.98 180 1.98 142 1.99
  48  0.833  0.917  0.669- 148 1.98 181 1.98 145 1.98 143 1.99
  49  0.917  0.833  0.169- 141 1.98 138 1.98 106 1.98 144 1.99
  50  0.917  0.833  0.503- 142 1.98 139 1.98 107 1.98 145 1.98
  51  0.917  0.833  0.836- 140 1.98 108 1.98 143 1.98 146 1.99
  52  0.917  0.084  0.169-  97 1.97 132 1.98 141 1.98 147 1.99
  53  0.918  0.085  0.502- 133 1.97 142 1.98 148 1.99  98 1.99
  54  0.917  0.083  0.836- 143 1.98 134 1.98  99 1.98 149 1.99
  55  0.917  0.333  0.169- 100 1.97 132 1.98 135 1.98 150 1.99
  56  0.918  0.334  0.502- 133 1.97 136 1.98 151 1.99 101 1.99
  57  0.917  0.334  0.836- 137 1.98 134 1.98 102 1.98 152 1.99
  58  0.917  0.583  0.169- 135 1.98 103 1.98 138 1.98 153 1.99
  59  0.917  0.583  0.503- 136 1.98 104 1.98 139 1.98 154 1.98
  60  0.917  0.583  0.836- 137 1.98 105 1.98 140 1.98 155 1.99
  61  0.167  0.833  0.169- 117 1.98 103 1.98 106 1.98 156 1.99
  62  0.167  0.833  0.503- 118 1.98 104 1.98 107 1.98 157 1.98
  63  0.167  0.833  0.836- 105 1.98 119 1.98 108 1.98 158 1.99
  64  0.167  0.084  0.169- 109 1.97  97 1.97 106 1.97 159 1.98
  65  0.167  0.084  0.503- 107 1.98 110 1.98  98 1.98 160 1.98
  66  0.167  0.084  0.836- 108 1.98 111 1.98  99 1.98 161 1.99
  67  0.168  0.334  0.171- 112 1.97  97 1.98 100 1.98 162 1.99
  68  0.180  0.340  0.500-  98 1.99 101 1.99 163 2.00  17 2.94  83 2.99  80 2.99
  69  0.166  0.333  0.836-  99 1.97 102 1.97 113 1.98 164 1.98
  70  0.167  0.583  0.169- 100 1.97 114 1.97 103 1.97 165 1.98
  71  0.167  0.583  0.503- 104 1.98 115 1.98 101 1.98 166 1.98
  72  0.167  0.583  0.836- 105 1.98 102 1.98 116 1.98 167 1.99
  73  0.417  0.833  0.169- 114 1.97 129 1.98 117 1.98 168 1.99
  74  0.416  0.832  0.502- 130 1.97 118 1.98 169 1.99 115 1.99
  75  0.416  0.833  0.836- 119 1.98 131 1.98 116 1.98 170 1.99
  76  0.417  0.084  0.169- 109 1.97 120 1.98 117 1.98 171 1.99
  77  0.416  0.085  0.502- 121 1.97 118 1.98 172 1.99 110 1.99
  78  0.416  0.083  0.836- 119 1.98 122 1.98 111 1.98 173 1.99
  79  0.416  0.334  0.171- 112 1.97 109 1.98 123 1.98 174 1.99
  80  0.410  0.340  0.500- 110 1.99 124 1.99 175 2.00  17 2.94  83 2.99  68 2.99
  81  0.417  0.333  0.836- 111 1.97 125 1.97 113 1.98 176 1.98
  82  0.416  0.582  0.171- 112 1.97 126 1.98 114 1.98 177 1.99
  83  0.410  0.570  0.500- 127 1.99 115 1.99 178 2.00  17 2.94  68 2.99  80 2.99
  84  0.417  0.584  0.836- 128 1.97 116 1.97 113 1.98 179 1.98
  85  0.666  0.833  0.169- 126 1.97 129 1.98 141 1.98 180 1.99
  86  0.665  0.832  0.502- 130 1.97 142 1.98 181 1.99 127 1.99
  87  0.667  0.833  0.836- 143 1.98 131 1.98 128 1.98 182 1.99
  88  0.667  0.083  0.169- 129 1.98 132 1.98 120 1.98 183 1.99
  89  0.667  0.083  0.502- 133 1.98 121 1.98 130 1.98 184 1.99
  90  0.667  0.083  0.836- 131 1.98 134 1.98 122 1.98 185 1.99
  91  0.666  0.333  0.169- 123 1.97 120 1.98 135 1.98 186 1.99
  92  0.665  0.334  0.502- 121 1.97 136 1.98 187 1.99 124 1.99
  93  0.667  0.334  0.836- 137 1.98 122 1.98 125 1.98 188 1.99
  94  0.666  0.583  0.169- 123 1.97 126 1.97 138 1.97 189 1.98
  95  0.666  0.583  0.503- 139 1.98 127 1.98 124 1.98 190 1.98
  96  0.666  0.583  0.836- 140 1.98 125 1.98 128 1.98 191 1.99
  97  0.084  0.167  0.130-  64 1.97  52 1.97  67 1.98   1 1.99
  98  0.086  0.170  0.463-  65 1.98  53 1.99   2 1.99  68 1.99
  99  0.084  0.167  0.796-  69 1.97  66 1.98  54 1.98   3 1.99
 100  0.084  0.416  0.130-  70 1.97  55 1.97  67 1.98   4 1.99
 101  0.086  0.416  0.463-  71 1.98  56 1.99   5 1.99  68 1.99
 102  0.084  0.417  0.796-  69 1.97  72 1.98  57 1.98   6 1.99
 103  0.083  0.667  0.130-  70 1.97  61 1.98  58 1.98   7 1.99
 104  0.084  0.666  0.463-  71 1.98  59 1.98  62 1.98   8 1.99
 105  0.083  0.667  0.796-  72 1.98  63 1.98  60 1.98   9 1.99
 106  0.083  0.917  0.130-  64 1.97  49 1.98  61 1.98  10 1.99
 107  0.084  0.917  0.463-  65 1.98  50 1.98  62 1.98  11 1.99
 108  0.083  0.917  0.796-  66 1.98  51 1.98  63 1.98  12 1.99
 109  0.334  0.167  0.130-  64 1.97  76 1.97  79 1.98  13 1.99
 110  0.334  0.170  0.463-  65 1.98  77 1.99  14 1.99  80 1.99
 111  0.333  0.167  0.796-  81 1.97  66 1.98  78 1.98  15 1.99
 112  0.333  0.417  0.129-  82 1.97  67 1.97  79 1.97  16 1.98
 113  0.333  0.417  0.796-  18 1.97  84 1.98  69 1.98  81 1.98
 114  0.334  0.666  0.130-  70 1.97  73 1.97  82 1.98  19 1.99
 115  0.334  0.664  0.463-  71 1.98  74 1.99  20 1.99  83 1.99
 116  0.333  0.666  0.796-  84 1.97  72 1.98  75 1.98  21 1.99
 117  0.334  0.917  0.130-  61 1.98  76 1.98  73 1.98  22 1.99
 118  0.334  0.917  0.463-  62 1.98  77 1.98  74 1.98  23 1.99
 119  0.333  0.917  0.796-  78 1.98  75 1.98  63 1.98  24 1.99
 120  0.583  0.167  0.130-  91 1.98  76 1.98  88 1.98  25 1.99
 121  0.583  0.167  0.463-  92 1.97  77 1.97  89 1.98  26 1.98
 122  0.583  0.167  0.796-  93 1.98  78 1.98  90 1.98  27 1.99
 123  0.583  0.416  0.130-  94 1.97  91 1.97  79 1.98  28 1.99
 124  0.580  0.416  0.463-  95 1.98  92 1.99  29 1.99  80 1.99
 125  0.583  0.417  0.796-  81 1.97  96 1.98  93 1.98  30 1.99
 126  0.583  0.666  0.130-  94 1.97  85 1.97  82 1.98  31 1.99
 127  0.580  0.664  0.463-  95 1.98  86 1.99  32 1.99  83 1.99
 128  0.583  0.666  0.796-  84 1.97  96 1.98  87 1.98  33 1.99
 129  0.583  0.917  0.130-  73 1.98  85 1.98  88 1.98  34 1.99
 130  0.583  0.916  0.463-  74 1.97  86 1.97  89 1.98  35 1.98
 131  0.583  0.917  0.796-  75 1.98  87 1.98  90 1.98  36 1.99
 132  0.833  0.167  0.130-  55 1.98  52 1.98  88 1.98  37 1.99
 133  0.834  0.167  0.463-  56 1.97  53 1.97  89 1.98  38 1.98
 134  0.833  0.167  0.796-  57 1.98  54 1.98  90 1.98  39 1.99
 135  0.833  0.417  0.130-  58 1.98  91 1.98  55 1.98  40 1.99
 136  0.833  0.416  0.463-  59 1.98  92 1.98  56 1.98  41 1.99
 137  0.833  0.417  0.796-  93 1.98  57 1.98  60 1.98  42 1.99
 138  0.833  0.667  0.130-  94 1.97  49 1.98  58 1.98  43 1.99
 139  0.833  0.666  0.463-  95 1.98  59 1.98  50 1.98  44 1.99
 140  0.833  0.667  0.796-  96 1.98  51 1.98  60 1.98  45 1.99
 141  0.833  0.917  0.130-  49 1.98  52 1.98  85 1.98  46 1.99
 142  0.833  0.917  0.463-  50 1.98  53 1.98  86 1.98  47 1.99
 143  0.833  0.917  0.796-  54 1.98  87 1.98  51 1.98  48 1.99
 144  0.917  0.833  0.297-  44 1.97  11 1.97  47 1.98  49 1.99
 145  0.917  0.833  0.630-  48 1.98  45 1.98  12 1.98  50 1.98
 146  0.917  0.833  0.963-  43 1.97  10 1.97  46 1.97  51 1.99
 147  0.917  0.084  0.297-   2 1.97  38 1.98  47 1.98  52 1.99
 148  0.917  0.084  0.630-   3 1.97  48 1.98  39 1.98  53 1.99
 149  0.917  0.083  0.963-  46 1.97  37 1.98   1 1.98  54 1.99
 150  0.917  0.334  0.297-   5 1.97  38 1.98  41 1.98  55 1.99
 151  0.917  0.333  0.630-   6 1.97  39 1.98  42 1.98  56 1.99
 152  0.917  0.333  0.963-  40 1.98  37 1.98   4 1.98  57 1.99
 153  0.917  0.583  0.297-   8 1.97  44 1.97  41 1.98  58 1.99
 154  0.917  0.583  0.630-  42 1.98   9 1.98  45 1.98  59 1.98
 155  0.917  0.583  0.963-   7 1.97  43 1.97  40 1.97  60 1.99
 156  0.167  0.833  0.297-   8 1.97  11 1.97  23 1.98  61 1.99
 157  0.167  0.833  0.630-  24 1.98   9 1.98  12 1.98  62 1.98
 158  0.167  0.833  0.963-   7 1.97  10 1.97  22 1.97  63 1.99
 159  0.167  0.083  0.297-  11 1.97  14 1.97   2 1.97  64 1.98
 160  0.167  0.083  0.630-  12 1.97  15 1.97   3 1.97  65 1.98
 161  0.167  0.084  0.963-  10 1.98  13 1.98   1 1.98  66 1.99
 162  0.170  0.335  0.298-   5 1.98   2 1.98  17 1.99  67 1.99
 163  0.168  0.334  0.627-  18 1.97   6 1.98   3 1.98  68 2.00
 164  0.167  0.333  0.963-   1 1.97   4 1.97  16 1.97  69 1.98
 165  0.167  0.583  0.297-   8 1.97   5 1.97  20 1.97  70 1.98
 166  0.167  0.583  0.630-   6 1.97   9 1.97  21 1.97  71 1.98
 167  0.167  0.583  0.963-   7 1.98   4 1.98  19 1.98  72 1.99
 168  0.416  0.833  0.297-  20 1.97  35 1.98  23 1.98  73 1.99
 169  0.417  0.833  0.630-  21 1.97  36 1.98  24 1.98  74 1.99
 170  0.417  0.833  0.963-  22 1.98  34 1.98  19 1.98  75 1.99
 171  0.416  0.084  0.297-  14 1.97  26 1.98  23 1.98  76 1.99
 172  0.417  0.084  0.630-  15 1.97  24 1.98  27 1.98  77 1.99
 173  0.417  0.083  0.963-  22 1.97  25 1.98  13 1.98  78 1.99
 174  0.415  0.335  0.298-  29 1.98  14 1.98  17 1.99  79 1.99
 175  0.416  0.334  0.627-  18 1.97  30 1.98  15 1.98  80 2.00
 176  0.417  0.333  0.963-  13 1.97  28 1.97  16 1.97  81 1.98
 177  0.415  0.580  0.298-  32 1.98  20 1.98  17 1.99  82 1.99
 178  0.416  0.582  0.627-  18 1.97  33 1.98  21 1.98  83 2.00
 179  0.417  0.583  0.963-  31 1.97  19 1.97  16 1.97  84 1.98
 180  0.666  0.833  0.297-  32 1.97  35 1.98  47 1.98  85 1.99
 181  0.666  0.833  0.630-  33 1.97  36 1.98  48 1.98  86 1.99
 182  0.667  0.833  0.963-  46 1.98  34 1.98  31 1.98  87 1.99
 183  0.667  0.083  0.296-  35 1.98  38 1.98  26 1.98  88 1.99
 184  0.667  0.083  0.630-  36 1.98  39 1.98  27 1.98  89 1.99
 185  0.667  0.083  0.963-  34 1.97  37 1.97  25 1.97  90 1.99
 186  0.666  0.334  0.297-  29 1.97  26 1.98  41 1.98  91 1.99
 187  0.666  0.333  0.630-  30 1.97  27 1.98  42 1.98  92 1.99
 188  0.667  0.333  0.963-  40 1.98  25 1.98  28 1.98  93 1.99
 189  0.667  0.583  0.297-  44 1.97  29 1.97  32 1.97  94 1.98
 190  0.667  0.583  0.630-  30 1.97  45 1.97  33 1.97  95 1.98
 191  0.666  0.583  0.963-  43 1.98  28 1.98  31 1.98  96 1.99
 
  LATTYP: Found a hexagonal cell.
 ALAT       =    12.9943537712
 C/A-ratio  =     1.2014478663
  
  Lattice vectors:
  
 A1 = (  12.9943542480,   0.0000000000,   0.0000000000)
 A2 = (  -6.4971766472,  11.2534400587,   0.0000000000)
 A3 = (   0.0000000000,   0.0000000000,  15.6120386124)


Analysis of symmetry for initial positions (statically):
=====================================================================
 Subroutine PRICEL returns:
 Original cell was already a primitive cell.
 

 Routine SETGRP: Setting up the symmetry group for a 
 hexagonal supercell.


 Subroutine GETGRP returns: Found  2 space group operations
 (whereof  1 operations were pure point group operations)
 out of a pool of 24 trial point group operations.


The static configuration has the point symmetry C_1 .
 The point group associated with its full space group is C_1h.


Analysis of symmetry for dynamics (positions and initial velocities):
=====================================================================
 Subroutine PRICEL returns:
 Original cell was already a primitive cell.
 

 Routine SETGRP: Setting up the symmetry group for a 
 hexagonal supercell.


 Subroutine GETGRP returns: Found  2 space group operations
 (whereof  1 operations were pure point group operations)
 out of a pool of 24 trial point group operations.


The dynamic configuration has the point symmetry C_1 .
 The point group associated with its full space group is C_1h.


Analysis of structural, dynamic, and magnetic symmetry:
=====================================================================
 Subroutine PRICEL returns:
 Original cell was already a primitive cell.
 

 Routine SETGRP: Setting up the symmetry group for a 
 hexagonal supercell.


 Subroutine GETGRP returns: Found  2 space group operations
 (whereof  1 operations were pure point group operations)
 out of a pool of 24 trial point group operations.


The magnetic configuration has the point symmetry C_1 .
 The point group associated with its full space group is C_1h.


 Subroutine INISYM returns: Found  2 space group operations
 (whereof  1 operations are pure point group operations),
 and found     1 'primitive' translations

 
 
 KPOINTS: pymatgen with grid density = 659 / numbe

Automatic generation of k-mesh.
Space group operators:
 irot       det(A)        alpha          n_x          n_y          n_z        tau_x        tau_y        tau_z
    1     1.000000     0.000000     1.000000     0.000000     0.000000     0.000000     0.000000     0.000000
    2    -1.000000   180.000000     1.000000    -0.000000     0.000000     0.250000     0.000000     0.000000
 
 Subroutine IBZKPT returns following result:
 ===========================================
 
 Found      1 irreducible k-points:
 
 Following reciprocal coordinates:
            Coordinates               Weight
  0.000000  0.000000  0.000000      1.000000
 
 Following cartesian coordinates:
            Coordinates               Weight
  0.000000  0.000000  0.000000      1.000000
 
 
 Subroutine IBZKPT_HF returns following result:
 ==============================================
 
 Found      1 k-points in 1st BZ
 the following      1 k-points will be used (e.g. in the exchange kernel)
 Following reciprocal coordinates:   # in IRBZ
  0.000000  0.000000  0.000000    1.00000000   1 t-inv F


--------------------------------------------------------------------------------------------------------




 Dimension of arrays:
   k-points           NKPTS =      1   k-points in BZ     NKDIM =      1   number of bands    NBANDS=   1056
   number of dos      NEDOS =    301   number of ions     NIONS =    191
   non local maximal  LDIM  =      6   non local SUM 2l+1 LMDIM =     18
   total plane-waves  NPLWV = 327680
   max r-space proj   IRMAX =   1631   max aug-charges    IRDMAX=   4477
   dimension x,y,z NGX =    64 NGY =   64 NGZ =   80
   dimension x,y,z NGXF=   128 NGYF=  128 NGZF=  160
   support grid    NGXF=   128 NGYF=  128 NGZF=  160
   ions per type =              96  95
   NGX,Y,Z   is equivalent  to a cutoff of   8.19,  8.19,  8.52 a.u.
   NGXF,Y,Z  is equivalent  to a cutoff of  16.38, 16.38, 17.04 a.u.

 SYSTEM =  zno                                     
 POSCAR =  Zn2 O2                                  

 Startparameter for this run:
   NWRITE =      2    write-flag & timer
   PREC   = normal    normal or accurate (medium, high low for compatibility)
   ISTART =      0    job   : 0-new  1-cont  2-samecut
   ICHARG =      2    charge: 1-file 2-atom 10-const
   ISPIN  =      2    spin polarized calculation?
   LNONCOLLINEAR =      F non collinear calculations
   LSORBIT =      F    spin-orbit coupling
   INIWAV =      1    electr: 0-lowe 1-rand  2-diag
   LASPH  =      F    aspherical Exc in radial PAW
   METAGGA=      F    non-selfconsistent MetaGGA calc.

 Electronic Relaxation 1
   ENCUT  =  400.0 eV  29.40 Ry    5.42 a.u.  21.19 21.19 25.46*2*pi/ulx,y,z
   ENINI  =  400.0     initial cutoff
   ENAUG  =  605.4 eV  augmentation charge cutoff
   NELM   =   1500;   NELMIN=  4; NELMDL= -5     # of ELM steps 
   EDIFF  = 0.1E-05   stopping-criterion for ELM
   LREAL  =      T    real-space projection
   NLSPLINE    = F    spline interpolate recip. space projectors
   LCOMPAT=      F    compatible to vasp.4.4
   GGA_COMPAT  = T    GGA compatible to vasp.4.4-vasp.4.6
   LMAXPAW     = -100 max onsite density
   LMAXMIX     =    2 max onsite mixed and CHGCAR
   VOSKOWN=      0    Vosko Wilk Nusair interpolation
   ROPT   =   -0.00050  -0.00050
 Ionic relaxation
   EDIFFG = -.1E-01   stopping-criterion for IOM
   NSW    =     20    number of steps for IOM
   NBLOCK =      1;   KBLOCK =     20    inner block; outer block 
   IBRION =      2    ionic relax: 0-MD 1-quasi-New 2-CG
   NFREE  =      1    steps in history (QN), initial steepest desc. (CG)
   ISIF   =      2    stress and relaxation
   IWAVPR =     11    prediction:  0-non 1-charg 2-wave 3-comb
   ISYM   =      3    0-nonsym 1-usesym 2-fastsym
   LCORR  =      T    Harris-Foulkes like correction to forces

   POTIM  = 0.5000    time-step for ionic-motion
   TEIN   =    0.0    initial temperature
   TEBEG  =    0.0;   TEEND  =   0.0 temperature during run
   SMASS  =  -3.00    Nose mass-parameter (am)
   estimated Nose-frequenzy (Omega)   =  0.10E-29 period in steps =****** mass=  -0.386E-26a.u.
   SCALEE = 1.0000    scale energy and forces
   NPACO  =    256;   APACO  = 16.0  distance and # of slots for P.C.
   PSTRESS=    0.0 pullay stress

  Mass of Ions in am
   POMASS =  65.39 16.00
  Ionic Valenz
   ZVAL   =  12.00  6.00
  Atomic Wigner-Seitz radii
   RWIGS  =  -1.00 -1.00
  virtual crystal weights 
   VCA    =   1.00  1.00
   NELECT =    1722.0000    total number of electrons
   NUPDOWN=      -1.0000    fix difference up-down

 DOS related values:
   EMIN   =  10.00;   EMAX   =-10.00  energy-range for DOS
   EFERMI =   0.00
   ISMEAR =     0;   SIGMA  =   0.01  broadening in eV -4-tet -1-fermi 0-gaus

 Electronic relaxation 2 (details)
   IALGO  =     53    algorithm
   LDIAG  =      T    sub-space diagonalisation (order eigenvalues)
   LSUBROT=      F    optimize rotation matrix (better conditioning)
   TURBO    =      0    0=normal 1=particle mesh
   IRESTART =      0    0=no restart 2=restart with 2 vectors
   NREBOOT  =      0    no. of reboots
   NMIN     =      0    reboot dimension
   EREF     =   0.00    reference energy to select bands
   IMIX   =      4    mixing-type and parameters
     AMIX     =   0.40;   BMIX     =  1.00
     AMIX_MAG =   1.60;   BMIX_MAG =  1.00
     AMIN     =   0.10
     WC   =   100.;   INIMIX=   1;  MIXPRE=   1;  MAXMIX= -45

 Intra band minimization:
   WEIMIN = 0.0010     energy-eigenvalue tresh-hold
   EBREAK =  0.24E-09  absolut break condition
   DEPER  =   0.30     relativ break condition  

   TIME   =   0.30     timestep for ELM

  volume/ion in A,a.u.               =      11.95        80.66
  Fermi-wavevector in a.u.,A,eV,Ry     =   1.490228  2.816122 30.215533  2.220779
  Thomas-Fermi vector in A             =   2.603036
 
 Write flags
   LWAVE        =      T    write WAVECAR
   LDOWNSAMPLE  =      F    k-point downsampling of WAVECAR
   LCHARG       =      T    write CHGCAR
   LVTOT        =      F    write LOCPOT, total local potential
   LVHAR        =      T    write LOCPOT, Hartree potential only
   LELF         =      F    write electronic localiz. function (ELF)
   LORBIT       =     11    0 simple, 1 ext, 2 COOP (PROOUT), +10 PAW based schemes


 Dipole corrections
   LMONO  =      F    monopole corrections only (constant potential shift)
   LDIPOL =      F    correct potential (dipole corrections)
   IDIPOL =      0    1-x, 2-y, 3-z, 4-all directions 
   EPSILON=  1.0000000 bulk dielectric constant

 Exchange correlation treatment:
   GGA     =    PE    GGA type
   LEXCH   =     8    internal setting for exchange type
   VOSKOWN=      0    Vosko Wilk Nusair interpolation
   EXXOEP  =     0    0=HF, 1=EXX-LHF (local Hartree Fock) 2=EXX OEP
   LHFCALC =     T    Hartree Fock is set to
   LSYMGRAD=     F    symmetrize gradient (conserves proper symmetry)
   PRECFOCK=fast      Normal, Fast or Accurate (Low or Medium for compatibility)
   LRHFCALC=     F    long range Hartree Fock
   LRSCOR  =     F    long range correlation only (use DFT for short range part)
   LTHOMAS =     F    Thomas Fermi screening in HF
   LMODELHF=     F    short range full HF, long range fraction AEXX
   ENCUT4O =  -1.0   cutoff for four orbital integrals eV
   LMAXFOCK=     4    L truncation for augmentation on plane wave grid
   LMAXFOCKAE=  -1    L truncation for all-electron charge restoration on plane wave grid
   NMAXFOCKAE=   1    number of basis functions for all-electron charge restoration
   LFOCKAEDFT=     F  apply the AE augmentation even for DFT
   NKREDX  =     1    reduce k-point grid by
   NKREDY  =     1    reduce k-point grid by
   NKREDZ  =     1    reduce k-point grid by
   SHIFTRED=     F    shift reduced grid of Gamma
   HFKIDENT=     F    idential grid for each k-point
   ODDONLY =     F    use only odd q-grid points
   EVENONLY=     F    use only even q-grid points
   HFALPHA =   -1.0000 decay constant for conv. correction
   MCALPHA =    0.0000 extent of test-charge in conv. correction in multipole expansion
   AEXX    =    0.3750 exact exchange contribution
   HFSCREEN=    0.2000 screening length (either q_TF or 0.3 A-1)
   HFSCREENC=   0.2000 screening length for correlation (either q_TF or 0.3 A-1)
   HFRCUT  =    0.0000 spherical cutoff for potential kernel
   ALDAX   =    0.6250 LDA exchange part
   AGGAX   =    0.6250 GGA exchange part
   ALDAC   =    1.0000 LDA correlation
   AGGAC   =    1.0000 GGA correlation
   ENCUTFOCK=  -1.0 apply spherical cutoff to Coloumb kernel
   NBANDSGWLOW=     1    first orbital included in HF term
   NBLOCK_FOCK=    64    blocking factor in FOCK_ACC
 Linear response parameters
   LEPSILON=     F    determine dielectric tensor
   LRPA    =     F    only Hartree local field effects (RPA)
   LNABLA  =     F    use nabla operator in PAW spheres
   LVEL    =     F    velocity operator in full k-point grid
   LINTERFAST=   F  fast interpolation
   KINTER  =     0    interpolate to denser k-point grid
   CSHIFT  =0.1000    complex shift for real part using Kramers Kronig
   OMEGAMAX=  -1.0    maximum frequency
   DEG_THRESHOLD= 0.2000000E-02 threshold for treating states as degnerate
   RTIME   =   -0.100 relaxation time in fs
  (WPLASMAI=    0.000 imaginary part of plasma frequency in eV, 0.658/RTIME)
   DFIELD  = 0.0000000 0.0000000 0.0000000 field for delta impulse in time
 
 Orbital magnetization related:
   ORBITALMAG=     F  switch on orbital magnetization
   LCHIMAG   =     F  perturbation theory with respect to B field
   DQ        =  0.001000  dq finite difference perturbation B field
   LLRAUG    =     F  two centre corrections for induced B field



--------------------------------------------------------------------------------------------------------


 conjugate gradient relaxation of ions
 charge density and potential will be updated during run
 spin polarized calculation
 Conjugate gradient for all bands (Freysoldt, et al. PRB 79, 241103 (2009))
 perform sub-space diagonalisation
    before iterative eigenvector-optimisation
 modified Broyden-mixing scheme, WC =      100.0
 initial mixing is a Kerker type mixing with AMIX =  0.4000 and BMIX =      1.0000
 Hartree-type preconditioning will be used
 using additional bands           195
 real space projection scheme for non local part
 use partial core corrections
 no Harris-corrections to forces 
 use gradient corrections 
 use of overlap-Matrix (Vanderbilt PP)
 Gauss-broadening in eV      SIGMA  =   0.01


--------------------------------------------------------------------------------------------------------


  energy-cutoff  :      400.00
  volume of cell :     2282.97
      direct lattice vectors                 reciprocal lattice vectors
    12.994354248  0.000000000  0.000000000     0.076956498  0.044430855 -0.000000000
    -6.497176647 11.253440059  0.000000000     0.000000000  0.088861716  0.000000000
     0.000000000  0.000000000 15.612038612     0.000000000 -0.000000000  0.064053134

  length of vectors
    12.994354248 12.994353294 15.612038612     0.088861710  0.088861716  0.064053134


 
 k-points in units of 2pi/SCALE and weight: pymatgen with grid density = 659 / numbe
   0.00000000  0.00000000  0.00000000       1.000
 
 k-points in reciprocal lattice and weights: pymatgen with grid density = 659 / numbe
   0.00000000  0.00000000  0.00000000       1.000
 
 position of ions in fractional coordinates (direct lattice) 
   0.08352431  0.16689406  0.00287096
   0.08393711  0.16720941  0.33621243
   0.08393867  0.16769043  0.66835981
   0.08352205  0.41663120  0.00286953
   0.08391998  0.41674737  0.33621849
   0.08393309  0.41625151  0.66836188
   0.08344250  0.66655569  0.00246875
   0.08335635  0.66664805  0.33597872
   0.08342470  0.66657498  0.66923084
   0.08344270  0.91688550  0.00246919
   0.08336072  0.91672153  0.33597882
   0.08342796  0.91685601  0.66922943
   0.33336978  0.16689408  0.00287097
   0.33327232  0.16720942  0.33621243
   0.33375180  0.16769045  0.66835981
   0.33333344  0.41666681  0.00240344
   0.33332562  0.41665119  0.34694987
   0.33333034  0.41666062  0.67008593
   0.33336943  0.66647798  0.00286777
   0.33325275  0.66604937  0.33621243
   0.33374729  0.66606010  0.66835739
   0.33343180  0.91671719  0.00252069
   0.33351964  0.91675960  0.33618060
   0.33352161  0.91676061  0.66900589
   0.58327677  0.16672210  0.00249359
   0.58329438  0.16671155  0.33606037
   0.58326540  0.16673145  0.66912983
   0.58310915  0.41663123  0.00286953
   0.58282740  0.41674740  0.33621849
   0.58231843  0.41625154  0.66836188
   0.58310858  0.66647804  0.00286777
   0.58279665  0.66604943  0.33621246
   0.58231284  0.66606016  0.66835739
   0.58327713  0.91655431  0.00249251
   0.58328737  0.91657481  0.33605965
   0.58326484  0.91652969  0.66912619
   0.83344536  0.16672210  0.00249360
   0.83341719  0.16671155  0.33606037
   0.83346609  0.16673145  0.66912983
   0.83328379  0.41656760  0.00252024
   0.83324388  0.41648779  0.33618138
   0.83324028  0.41648059  0.66900999
   0.83311314  0.66655569  0.00246876
   0.83329164  0.66664805  0.33597872
   0.83315023  0.66657498  0.66923084
   0.83328537  0.91671719  0.00252069
   0.83323993  0.91675960  0.33618060
   0.83323903  0.91676067  0.66900589
   0.91664462  0.83335383  0.16930231
   0.91657427  0.83344075  0.50256139
   0.91664822  0.83334814  0.83591274
   0.91694245  0.08351548  0.16937439
   0.91833098  0.08479043  0.50238939
   0.91698497  0.08345975  0.83571055
   0.91693783  0.33342553  0.16937405
   0.91830788  0.33352994  0.50239493
   0.91698054  0.33351891  0.83571106
   0.91664449  0.58328874  0.16930242
   0.91656195  0.58312365  0.50256349
   0.91664828  0.58329633  0.83591390
   0.16670933  0.83335383  0.16930231
   0.16686660  0.83344075  0.50256139
   0.16670004  0.83334814  0.83591274
   0.16676472  0.08352916  0.16940140
   0.16702699  0.08405371  0.50261815
   0.16685242  0.08370457  0.83558074
   0.16802668  0.33401960  0.17066802
   0.17992794  0.33998602  0.49952051
   0.16644661  0.33322415  0.83596817
   0.16676080  0.58323380  0.16940065
   0.16699279  0.58298695  0.50262490
   0.16684994  0.58314447  0.83557957
   0.41656984  0.83305444  0.16937261
   0.41644200  0.83165319  0.50238406
   0.41647460  0.83301472  0.83571005
   0.41657318  0.08351548  0.16937439
   0.41645961  0.08479043  0.50238939
   0.41647494  0.08345975  0.83571055
   0.41599313  0.33401957  0.17066802
   0.41005828  0.33998599  0.49952051
   0.41677774  0.33322412  0.83596817
   0.41598403  0.58196788  0.17066530
   0.41002764  0.57005509  0.49951600
   0.41677660  0.58355302  0.83596417
   0.66648469  0.83305444  0.16937261
   0.66521129  0.83165319  0.50238406
   0.66654020  0.83301472  0.83571005
   0.66666643  0.08333261  0.16918051
   0.66666345  0.08332666  0.50246219
   0.66666548  0.08333071  0.83590509
   0.66648785  0.33342556  0.16937405
   0.66522226  0.33352997  0.50239493
   0.66653858  0.33351894  0.83571106
   0.66647326  0.58323380  0.16940065
   0.66599441  0.58298695  0.50262490
   0.66629478  0.58314447  0.83557957
   0.08380252  0.16739851  0.13019517
   0.08632359  0.17046418  0.46348003
   0.08357057  0.16704568  0.79566997
   0.08379350  0.41641124  0.13019192
   0.08628540  0.41588744  0.46348257
   0.08356514  0.41652773  0.79567217
   0.08343694  0.66656617  0.12977336
   0.08360337  0.66639807  0.46317194
   0.08340652  0.66659360  0.79641691
   0.08343963  0.91687926  0.12977501
   0.08362219  0.91724448  0.46317336
   0.08340927  0.91681854  0.79641627
   0.33359600  0.16739851  0.13019517
   0.33414062  0.17046420  0.46348003
   0.33347512  0.16704568  0.79566997
   0.33333343  0.41666681  0.12925632
   0.33333361  0.41666716  0.79646340
   0.33358830  0.66619930  0.13019210
   0.33407878  0.66365920  0.46348053
   0.33347110  0.66643363  0.79566905
   0.33350051  0.91675387  0.12983585
   0.33389021  0.91695225  0.46334976
   0.33339052  0.91669784  0.79626171
   0.58326845  0.16673546  0.12978643
   0.58322045  0.16678064  0.46305594
   0.58328856  0.16671179  0.79634548
   0.58261775  0.41641127  0.13019193
   0.57960204  0.41588747  0.46348260
   0.58296260  0.41652776  0.79567217
   0.58261103  0.66619936  0.13019210
   0.57958045  0.66365926  0.46348053
   0.58296257  0.66643369  0.79566905
   0.58326706  0.91653412  0.12978648
   0.58321170  0.91642340  0.46305754
   0.58328843  0.91657686  0.79634480
   0.83346704  0.16673546  0.12978641
   0.83356022  0.16678064  0.46305591
   0.83342326  0.16671179  0.79634548
   0.83325197  0.41650396  0.12983436
   0.83305381  0.41610764  0.46334954
   0.83330592  0.41661187  0.79626426
   0.83312918  0.66656617  0.12977336
   0.83279465  0.66639807  0.46317194
   0.83318702  0.66659360  0.79641691
   0.83325339  0.91675387  0.12983585
   0.83306206  0.91695231  0.46334976
   0.83330735  0.91669784  0.79626171
   0.91661136  0.83339234  0.29653416
   0.91666175  0.83333487  0.62968351
   0.91666244  0.83333222  0.96313138
   0.91724174  0.08365438  0.29665688
   0.91700185  0.08354088  0.62955318
   0.91689956  0.08343625  0.96300550
   0.91723526  0.33358684  0.29665479
   0.91699491  0.33345460  0.62955577
   0.91689656  0.33345942  0.96300562
   0.91660818  0.58321612  0.29653365
   0.91666006  0.58331988  0.62968421
   0.91666346  0.58332669  0.96313234
   0.16678111  0.83339234  0.29653416
   0.16667324  0.83333487  0.62968351
   0.16666989  0.83333222  0.96313138
   0.16668872  0.08337717  0.29651787
   0.16673876  0.08347725  0.62967157
   0.16679370  0.08358716  0.96287895
   0.16983351  0.33493767  0.29826758
   0.16827127  0.33414436  0.62720372
   0.16663965  0.33331828  0.96288845
   0.16667696  0.58331484  0.29651365
   0.16673130  0.58325947  0.62967586
   0.16679267  0.58320284  0.96287757
   0.41640205  0.83274004  0.29665595
   0.41653569  0.83299038  0.62955109
   0.41653611  0.83309884  0.96300522
   0.41641279  0.08365438  0.29665688
   0.41653919  0.08354088  0.62955318
   0.41653685  0.08343625  0.96300550
   0.41510437  0.33493764  0.29826758
   0.41587330  0.33414433  0.62720372
   0.41667884  0.33331825  0.96288845
   0.41506205  0.58012392  0.29826558
   0.41585452  0.58170885  0.62719930
   0.41667779  0.58335541  0.96288631
   0.66633808  0.83274004  0.29665595
   0.66645478  0.83299038  0.62955109
   0.66656281  0.83309884  0.96300522
   0.66666318  0.08332612  0.29642149
   0.66666417  0.08332810  0.62968120
   0.66666503  0.08332981  0.96313082
   0.66635179  0.33358687  0.29665479
   0.66645990  0.33345463  0.62955577
   0.66656301  0.33345945  0.96300562
   0.66663807  0.58331484  0.29651365
   0.66652837  0.58325947  0.62967586
   0.66641036  0.58320284  0.96287757
 
 position of ions in cartesian coordinates  (Angst):
   0.00100424  1.87813234  0.04482161
   0.00431951  1.88168103  5.24896144
   0.00121439  1.88709426 10.43445918
  -1.62161134  4.68853419  0.04479914
  -1.61719535  4.68984149  5.24905605
  -1.61380326  4.68426146 10.43449155
  -3.24644869  7.50104455  0.03854230
  -3.24816817  7.50208383  5.24531282
  -3.24680532  7.50126155 10.44805771
  -4.87288298 10.31811597  0.03854903
  -4.87288298 10.31627079  5.24531434
  -4.87288298 10.31778419 10.44803570
   3.24758467  1.87813251  0.04482177
   3.24426940  1.88168120  5.24896144
   3.24737461  1.88709443 10.43445918
   1.62429486  4.68893502  0.03752253
   1.62429486  4.68875915  5.41659471
   1.62429486  4.68886530 10.46140746
   0.00169534  7.50017004  0.04477176
   0.00296382  7.49534668  5.24896140
   0.00932041  7.49546745 10.43442143
  -1.62334265 10.31622200  0.03935310
  -1.62247667 10.31669921  5.24846452
  -1.62245764 10.31671058 10.44454579
   6.49608200  1.87619717  0.03892999
   6.49637948  1.87607842  5.24658748
   6.49587349  1.87630243 10.44648073
   4.87020020  4.68853452  0.04479914
   4.86578420  4.68984183  5.24905605
   4.86239212  4.68426180 10.43449155
   3.24689384  7.50017071  0.04477176
   3.24562536  7.49534735  5.24896187
   3.23926877  7.49546812 10.43442143
   1.62429432 10.31438900  0.03891317
   1.62429432 10.31461967  5.24657618
   1.62429471 10.31411189 10.44642388
   9.74686135  1.87619717  0.03893014
   9.74656387  1.87607842  5.24658748
   9.74706985  1.87630243 10.44648073
   8.12147140  4.68781854  0.03934609
   8.12147140  4.68692043  5.24847672
   8.12147140  4.68683940 10.44460974
   6.49503720  7.50104455  0.03854245
   6.49675668  7.50208383  5.24531282
   6.49539383  7.50126155 10.44805771
   4.87193168 10.31622200  0.03935310
   4.87106570 10.31669921  5.24846452
   4.87104707 10.31671125 10.44454579
   6.49675784  9.37809739  2.64315422
   6.49527894  9.37907550  7.84600777
   6.49684159  9.37803329 13.05030199
  11.37246027  0.93983642  2.64427946
  11.38221962  0.95418407  7.84332251
  11.37337482  0.93920930 13.04714536
   9.74869039  3.75218417  2.64427413
   9.76581500  3.75335915  7.84340902
   9.74863869  3.75323502 13.04715338
   8.12147323  6.56400490  2.64315589
   8.12147323  6.56214708  7.84604058
   8.12147323  6.56409028 13.05032007
  -3.24816693  9.37809739  2.64315422
  -3.24668802  9.37907550  7.84600777
  -3.24825067  9.37803329 13.05030199
   1.62429611  0.93999044  2.64470114
   1.62429611  0.94589340  7.84689390
   1.62429611  0.94196437 13.04511879
   0.01321386  3.75886951  2.66447564
   0.12909822  3.82601225  7.79853348
  -0.00214993  3.74991795 13.05116731
  -1.62242413  6.56338666  2.64468949
  -1.61780567  6.56060870  7.84699938
  -1.62068535  6.56238129 13.04510045
   0.00055424  9.37472825  2.64425175
   0.00799713  9.35895938  7.84323941
  -0.00042522  9.37428119 13.04713755
   4.87048466  0.93983642  2.64427946
   4.86072531  0.95418407  7.84332251
   4.86957011  0.93920930 13.04714536
   3.23537792  3.75886918  2.66447564
   3.11949357  3.82601191  7.79853348
   3.25074171  3.74991761 13.05116731
   1.62429571  6.54914063  2.66443329
   1.62429571  6.41508081  7.79846314
   1.62429572  6.56697895 13.05110490
   3.24803628  9.37472825  2.64425175
   3.24059340  9.35895938  7.84323941
   3.24901574  9.37428119 13.04713755
   8.12147304  0.93777853  2.64125264
   8.12147304  0.93771158  7.84445917
   8.12147304  0.93775720 13.05018253
   6.49425449  3.75218451  2.64427413
   6.47713065  3.75335949  7.84340902
   6.49430696  3.75323536 13.04715338
   4.87101654  6.56338666  2.64468949
   4.86639808  6.56060870  7.84699938
   4.86927776  6.56238129 13.04510045
   0.00134196  1.88380910  2.03261207
   0.01418338  1.91830846  7.23586815
   0.00062032  1.87983850 12.42203032
  -1.61665499  4.68605897  2.03256122
  -1.58087108  4.68016438  7.23590781
  -1.62037925  4.68736980 12.42206464
  -3.24658908  7.50116246  2.02602669
  -3.24333414  7.49927077  7.23105817
  -3.24716248  7.50147108 12.43369148
  -4.87288241 10.31804574  2.02605243
  -4.87288298 10.32215573  7.23108046
  -4.87288241 10.31736252 12.43368162
   3.24724694  1.88380910  2.03261207
   3.23440562  1.91830863  7.23586815
   3.24796858  1.87983850 12.42203032
   1.62429486  4.68893492  2.01795465
   1.62429486  4.68893893 12.43441728
   0.00635002  7.49703395  2.03256411
   0.02922696  7.46844900  7.23587598
   0.00330451  7.49967096 12.42201594
  -1.62268813 10.31663475  2.02700232
  -1.61891299 10.31886714  7.23383435
  -1.62375331 10.31600425 12.43126855
   6.49588706  1.87634753  2.02623068
   6.49496988  1.87685597  7.22924719
   6.49630221  1.87608113 12.43257641
   4.86524384  4.68605931  2.03256145
   4.82945993  4.68016472  7.23590828
   4.86896810  4.68737014 12.42206464
   3.24223916  7.49703462  2.03256411
   3.21936222  7.46844967  7.23587598
   3.24528467  7.49967164 12.42201594
   1.62429471 10.31416179  2.02623160
   1.62429471 10.31291583  7.22927214
   1.62429471 10.31464275 12.43256581
   9.74705628  1.87634753  2.02623045
   9.74797347  1.87685597  7.22924673
   9.74664114  1.87608113 12.43257641
   8.12147140  4.68710236  2.02697897
   8.12147140  4.68264241  7.23383085
   8.12147140  4.68831671 12.43130841
   6.49517758  7.50116246  2.02602669
   6.49192264  7.49927077  7.23105817
   6.49575099  7.50147108 12.43369148
   4.87127794 10.31663475  2.02700232
   4.86750241 10.31886781  7.23383435
   4.87234313 10.31600425 12.43126855
   6.49607539  9.37853079  4.62950270
   6.49710361  9.37788398  9.83064320
   6.49712989  9.37785415 15.03644425
  11.37544682  0.94139951  4.63141864
  11.37306695  0.94012233  9.82860853
  11.37241760  0.93894482 15.03447910
   9.75150725  3.75399952  4.63138602
   9.74924329  3.75251132  9.82864894
   9.74793397  3.75256558 15.03448086
   8.12147323  6.56318770  4.62949479
   8.12147323  6.56435536  9.83065414
   8.12147323  6.56443193 15.03645925
  -3.24748447  9.37853079  4.62950270
  -3.24851269  9.37788398  9.83064320
  -3.24853897  9.37785415 15.03644425
   1.62429611  0.93827999  4.62924846
   1.62429611  0.93940619  9.83045693
   1.62429592  0.94064306 15.03250342
   0.03072752  3.76920102  4.65656491
   0.01558157  3.76027354  9.79192870
  -0.00025311  3.75097725 15.03265161
  -1.62404009  6.56429855  4.62918252
  -1.62297427  6.56367548  9.83052382
  -1.62180882  6.56303817 15.03248176
   0.00041662  9.37119010  4.63140420
   0.00052669  9.37400730  9.82857597
  -0.00017250  9.37522782 15.03447469
   4.86749811  0.94139951  4.63141864
   4.86987798  0.94012233  9.82860853
   4.87052733  0.93894482 15.03447910
   3.21786426  3.76920069  4.65656491
   3.23301021  3.76027320  9.79192870
   3.24884489  3.75097692 15.03265161
   1.62429571  6.52838973  4.65653378
   1.62429571  6.54622572  9.79185961
   1.62429572  6.56475512 15.03261825
   3.24817391  9.37119010  4.63140420
   3.24806384  9.37400730  9.82857597
   3.24876303  9.37522782 15.03447469
   8.12147304  0.93770554  4.62774378
   8.12147304  0.93772781  9.83060714
   8.12147304  0.93774699 15.03643560
   6.49143840  3.75399986  4.63138602
   6.49370235  3.75251166  9.82864894
   6.49501091  3.75256591 15.03448086
   4.87263173  6.56429855  4.62918252
   4.87156591  6.56367548  9.83052382
   4.87040046  6.56303817 15.03248176
 


--------------------------------------------------------------------------------------------------------


 use parallel FFT for orbitals z direction half grid
 k-point  1 :   0.0000 0.0000 0.0000  plane waves:   20744

 maximum and minimum number of plane-waves per node :      2599     2585

 maximum number of plane-waves:     20744
 maximum index in each direction: 
   IXMAX=   21   IYMAX=   21   IZMAX=   25
   IXMIN=  -21   IYMIN=  -21   IZMIN=    0


 real space projection operators:
  total allocation   :      29903.83 KBytes
  max/ min on nodes  :       4050.36       3452.70


 parallel 3D FFT for wavefunctions:
    minimum data exchange during FFTs selected (reduces bandwidth)
 parallel 3D FFT for charge:
    minimum data exchange during FFTs selected (reduces bandwidth)


 FFT grid for exact exchange (Hartree Fock) 
  NGX = 48; NGY = 48; NGZ = 54

 use parallel FFT for orbitals z direction half grid
 
 Radii for the augmentation spheres in the non-local exchange
 for species   1 augmentation radius   1.285 (default was   0.952)
       energy cutoff for augmentation   1600.0
 for species   2 augmentation radius   0.974 (default was   0.722)
       energy cutoff for augmentation   1600.0

 real space projection operators:
  total allocation   :      10583.37 KBytes
  max/ min on nodes  :       1387.17       1241.22

 Maximum index for augmentation-charges in exchange            68
  SETUP_FOCK is finished

 total amount of memory used by VASP MPI-rank0    50099. kBytes
=======================================================================

   base      :      30000. kBytes
   nonlr-proj:       6677. kBytes
   fftplans  :       2144. kBytes
   grid      :       4947. kBytes
   one-center:        373. kBytes
   HF        :        129. kBytes
   wavefun   :       5829. kBytes
 
     INWAV:  cpu time    0.0001: real time    0.0003
 Broyden mixing: mesh for mixing (old mesh)
   NGX = 43   NGY = 43   NGZ = 51
  (NGX  =128   NGY  =128   NGZ  =160)
  gives a total of  94299 points

 initial charge density was supplied:
 charge density of overlapping atoms calculated
 number of electron    1722.0000000 magnetization       6.0000000
 keeping initial charge density in first step


--------------------------------------------------------------------------------------------------------


 Maximum index for non-local projection operator           216
 Maximum index for augmentation-charges            18 (set IRDMAX)


--------------------------------------------------------------------------------------------------------


 First call to EWALD:  gamma=   0.135
 Maximum number of real-space cells 3x 3x 2
 Maximum number of reciprocal cells 3x 3x 3

    FEWALD:  cpu time    0.0388: real time    0.0388


--------------------------------------- Iteration      1(   1)  ---------------------------------------


    POTLOK:  cpu time    0.2009: real time    0.2040
    SETDIJ:  cpu time    0.1220: real time    0.1220
    TRIAL :  cpu time    2.7910: real time    2.7925
    CORREC:  cpu time    0.0008: real time    0.0008
    --------------------------------------------
      LOOP:  cpu time    3.1358: real time    3.1404

 eigenvalue-minimisations  :  4224
 total energy-change (2. order) : 0.3812719E+05  (-0.6204755E+05)
 number of electron    1722.0000000 magnetization       6.0000000
 augmentation part     1722.0000000 magnetization       6.0000000

 Free energy of the ion-electron system (eV)
  ---------------------------------------------------
  alpha Z        PSCENC =     11210.35979291
  Ewald energy   TEWEN  =   -141765.42966631
  -Hartree energ DENC   =    -61742.73053846
  -exchange      EXHF   =         0.00000000
  -V(xc)+E(xc)   XCENC  =      5218.12436330
  PAW double counting   =    175424.41562286  -190627.27523631
  entropy T*S    EENTRO =        -0.00000000
  eigenvalues    EBANDS =     32136.83558990
  atomic energy  EATOM  =    208272.89128581
  ---------------------------------------------------
  free energy    TOTEN  =     38127.19121369 eV

  energy without entropy =    38127.19121369  energy(sigma->0) =    38127.19121369
  exchange ACFDT corr.  =         0.00000000  see jH, gK, PRB 81, 115126


--------------------------------------------------------------------------------------------------------




--------------------------------------- Iteration      1(   2)  ---------------------------------------


    TRIAL :  cpu time    3.5730: real time    3.5746
    CORREC:  cpu time    0.0003: real time    0.0003
    --------------------------------------------
      LOOP:  cpu time    3.5870: real time    3.6013

 eigenvalue-minimisations  :  5856
 total energy-change (2. order) :-0.2184455E+05  (-0.2045021E+05)
 number of electron    1722.0000000 magnetization       6.0000000
 augmentation part     1722.0000000 magnetization       6.0000000

 Free energy of the ion-electron system (eV)
  ---------------------------------------------------
  alpha Z        PSCENC =     11210.35979291
  Ewald energy   TEWEN  =   -141765.42966631
  -Hartree energ DENC   =    -61742.73053846
  -exchange      EXHF   =         0.00000000
  -V(xc)+E(xc)   XCENC  =      5218.12436330
  PAW double counting   =    175424.41562286  -190627.27523631
  entropy T*S    EENTRO =        -0.00000000
  eigenvalues    EBANDS =     10292.28587516
  atomic energy  EATOM  =    208272.89128581
  ---------------------------------------------------
  free energy    TOTEN  =     16282.64149895 eV

  energy without entropy =    16282.64149895  energy(sigma->0) =    16282.64149895
  exchange ACFDT corr.  =         0.00000000  see jH, gK, PRB 81, 115126


--------------------------------------------------------------------------------------------------------




--------------------------------------- Iteration      1(   3)  ---------------------------------------


    TRIAL :  cpu time    4.0890: real time    4.0906
    CORREC:  cpu time    0.0007: real time    0.0007
    --------------------------------------------
      LOOP:  cpu time    4.1022: real time    4.1168

 eigenvalue-minimisations  :  7008
 total energy-change (2. order) :-0.7763991E+04  (-0.7126458E+04)
 number of electron    1722.0000000 magnetization       6.0000000
 augmentation part     1722.0000000 magnetization       6.0000000

 Free energy of the ion-electron system (eV)
  ---------------------------------------------------
  alpha Z        PSCENC =     11210.35979291
  Ewald energy   TEWEN  =   -141765.42966631
  -Hartree energ DENC   =    -61742.73053846
  -exchange      EXHF   =         0.00000000
  -V(xc)+E(xc)   XCENC  =      5218.12436330
  PAW double counting   =    175424.41562286  -190627.27523631
  entropy T*S    EENTRO =        -0.00000002
  eigenvalues    EBANDS =      2528.29466875
  atomic energy  EATOM  =    208272.89128581
  ---------------------------------------------------
  free energy    TOTEN  =      8518.65029252 eV

  energy without entropy =     8518.65029254  energy(sigma->0) =     8518.65029253
  exchange ACFDT corr.  =         0.00000000  see jH, gK, PRB 81, 115126


--------------------------------------------------------------------------------------------------------




--------------------------------------- Iteration      1(   4)  ---------------------------------------


    TRIAL :  cpu time    4.2555: real time    4.2567
    CORREC:  cpu time    0.0004: real time    0.0004
    --------------------------------------------
      LOOP:  cpu time    4.2671: real time    4.2837

 eigenvalue-minimisations  :  7392
 total energy-change (2. order) :-0.1870159E+04  (-0.1801409E+04)
 number of electron    1722.0000000 magnetization       6.0000000
 augmentation part     1722.0000000 magnetization       6.0000000

 Free energy of the ion-electron system (eV)
  ---------------------------------------------------
  alpha Z        PSCENC =     11210.35979291
  Ewald energy   TEWEN  =   -141765.42966631
  -Hartree energ DENC   =    -61742.73053846
  -exchange      EXHF   =         0.00000000
  -V(xc)+E(xc)   XCENC  =      5218.12436330
  PAW double counting   =    175424.41562286  -190627.27523631
  entropy T*S    EENTRO =        -0.00000000
  eigenvalues    EBANDS =       658.13554525
  atomic energy  EATOM  =    208272.89128581
  ---------------------------------------------------
  free energy    TOTEN  =      6648.49116903 eV

  energy without entropy =     6648.49116903  energy(sigma->0) =     6648.49116903
  exchange ACFDT corr.  =         0.00000000  see jH, gK, PRB 81, 115126


--------------------------------------------------------------------------------------------------------




--------------------------------------- Iteration      1(   5)  ---------------------------------------


    TRIAL :  cpu time    4.8665: real time    4.8688
    CORREC:  cpu time    0.0003: real time    0.0003
    CHARGE:  cpu time    0.0546: real time    0.0546
    --------------------------------------------
      LOOP:  cpu time    4.9356: real time    4.9552

 eigenvalue-minimisations  :  8352
 total energy-change (2. order) :-0.3735208E+03  (-0.3660190E+03)
 number of electron    1722.0003239 magnetization       0.0000001
 augmentation part      820.4671019 magnetization       0.3028040

 Free energy of the ion-electron system (eV)
  ---------------------------------------------------
  alpha Z        PSCENC =     11210.35979291
  Ewald energy   TEWEN  =   -141765.42966631
  -Hartree energ DENC   =    -61742.73053846
  -exchange      EXHF   =         0.00000000
  -V(xc)+E(xc)   XCENC  =      5218.12436330
  PAW double counting   =    175424.41562286  -190627.27523631
  entropy T*S    EENTRO =        -0.00000000
  eigenvalues    EBANDS =       284.61471284
  atomic energy  EATOM  =    208272.89128581
  ---------------------------------------------------
  free energy    TOTEN  =      6274.97033663 eV

  energy without entropy =     6274.97033663  energy(sigma->0) =     6274.97033663
  exchange ACFDT corr.  =         0.00000000  see jH, gK, PRB 81, 115126


--------------------------------------------------------------------------------------------------------




--------------------------------------- Iteration      1(   6)  ---------------------------------------


    POTLOK:  cpu time    0.1272: real time    0.1272
    SETDIJ:  cpu time    0.1359: real time    0.1359
    TRIAL :  cpu time   66.4829: real time   66.5199
    CORREC:  cpu time    0.0034: real time    0.0034
    CHARGE:  cpu time    0.0418: real time    0.0418
    --------------------------------------------
      LOOP:  cpu time   66.8020: real time   66.8532

 eigenvalue-minimisations  :     0
 total energy-change (2. order) :-0.7257295E+04  (-0.3231715E+03)
 number of electron    1722.0003342 magnetization       0.0000001
 augmentation part      846.9965901 magnetization       0.1128385

 Free energy of the ion-electron system (eV)
  ---------------------------------------------------
  alpha Z        PSCENC =     11210.35979291
  Ewald energy   TEWEN  =   -141765.42966631
  -Hartree energ DENC   =    -59517.57560954
  -exchange      EXHF   =      7333.49925070
  -V(xc)+E(xc)   XCENC  =      5172.19811874
  PAW double counting   =    205178.75108883  -219565.75734024
  entropy T*S    EENTRO =        -0.00000000
  eigenvalues    EBANDS =    -17301.26149868
  atomic energy  EATOM  =    208272.89128581
  ---------------------------------------------------
  free energy    TOTEN  =      -982.32457780 eV

  energy without entropy =     -982.32457780  energy(sigma->0) =     -982.32457780
  exchange ACFDT corr.  =         0.00000000  see jH, gK, PRB 81, 115126


--------------------------------------------------------------------------------------------------------




--------------------------------------- Iteration      1(   7)  ---------------------------------------


    POTLOK:  cpu time    0.1264: real time    0.1264
    SETDIJ:  cpu time    0.1266: real time    0.1266
    TRIAL :  cpu time   67.9896: real time   68.0206
    CORREC:  cpu time    0.0029: real time    0.0029
    CHARGE:  cpu time    0.0438: real time    0.0438
    --------------------------------------------
      LOOP:  cpu time   68.3012: real time   68.3501

 eigenvalue-minimisations  :     0
 total energy-change (2. order) :-0.1595352E+03  (-0.4529377E+02)
 number of electron    1722.0003343 magnetization       0.0000000
 augmentation part      854.8146431 magnetization       0.0170359

 Free energy of the ion-electron system (eV)
  ---------------------------------------------------
  alpha Z        PSCENC =     11210.35979291
  Ewald energy   TEWEN  =   -141765.42966631
  -Hartree energ DENC   =    -63132.00897138
  -exchange      EXHF   =      7517.29554929
  -V(xc)+E(xc)   XCENC  =      5286.44854901
  PAW double counting   =    207803.44933530  -223684.90185948
  entropy T*S    EENTRO =        -0.00000000
  eigenvalues    EBANDS =    -12649.96382819
  atomic energy  EATOM  =    208272.89128581
  ---------------------------------------------------
  free energy    TOTEN  =     -1141.85981303 eV

  energy without entropy =    -1141.85981303  energy(sigma->0) =    -1141.85981303
  exchange ACFDT corr.  =         0.00000000  see jH, gK, PRB 81, 115126


--------------------------------------------------------------------------------------------------------




--------------------------------------- Iteration      1(   8)  ---------------------------------------


    POTLOK:  cpu time    0.1278: real time    0.1278
    SETDIJ:  cpu time    0.1240: real time    0.1240
    TRIAL :  cpu time   67.9240: real time   67.9522
    CORREC:  cpu time    0.0012: real time    0.0012
    CHARGE:  cpu time    0.0467: real time    0.0467
    --------------------------------------------
      LOOP:  cpu time   68.2400: real time   68.2827

 eigenvalue-minimisations  :     0
 total energy-change (2. order) :-0.2016883E+02  (-0.5520558E+02)
 number of electron    1722.0003293 magnetization       0.0000000
 augmentation part      848.2351213 magnetization      -0.0269599

 Free energy of the ion-electron system (eV)
  ---------------------------------------------------
  alpha Z        PSCENC =     11210.35979291
  Ewald energy   TEWEN  =   -141765.42966631
  -Hartree energ DENC   =    -64406.70584423
  -exchange      EXHF   =      7600.32396240
  -V(xc)+E(xc)   XCENC  =      5329.63796792
  PAW double counting   =    208801.90751323  -224988.86455222
  entropy T*S    EENTRO =        -0.00000000
  eigenvalues    EBANDS =    -11216.14909870
  atomic energy  EATOM  =    208272.89128581
  ---------------------------------------------------
  free energy    TOTEN  =     -1162.02863921 eV

  energy without entropy =    -1162.02863921  energy(sigma->0) =    -1162.02863921
  exchange ACFDT corr.  =         0.00000000  see jH, gK, PRB 81, 115126


--------------------------------------------------------------------------------------------------------




--------------------------------------- Iteration      1(   9)  ---------------------------------------


    POTLOK:  cpu time    0.1266: real time    0.1266
    SETDIJ:  cpu time    0.1238: real time    0.1240
    TRIAL :  cpu time   67.7983: real time   67.8252
    CORREC:  cpu time    0.0009: real time    0.0009
    CHARGE:  cpu time    0.0437: real time    0.0437
    --------------------------------------------
      LOOP:  cpu time   68.1063: real time   68.1502

 eigenvalue-minimisations  :     0
 total energy-change (2. order) :-0.3364969E+02  (-0.1382955E+02)
 number of electron    1722.0003277 magnetization       0.0000000
 augmentation part      843.3001169 magnetization      -0.0278724

 Free energy of the ion-electron system (eV)
  ---------------------------------------------------
  alpha Z        PSCENC =     11210.35979291
  Ewald energy   TEWEN  =   -141765.42966631
  -Hartree energ DENC   =    -63701.89634295
  -exchange      EXHF   =      7582.51407974
  -V(xc)+E(xc)   XCENC  =      5307.97566041
  PAW double counting   =    208374.85412531  -223995.58767745
  entropy T*S    EENTRO =        -0.00000000
  eigenvalues    EBANDS =    -12481.35959150
  atomic energy  EATOM  =    208272.89128581
  ---------------------------------------------------
  free energy    TOTEN  =     -1195.67833404 eV

  energy without entropy =    -1195.67833404  energy(sigma->0) =    -1195.67833404
  exchange ACFDT corr.  =         0.00000000  see jH, gK, PRB 81, 115126


--------------------------------------------------------------------------------------------------------




--------------------------------------- Iteration      1(  10)  ---------------------------------------


    POTLOK:  cpu time    0.1258: real time    0.1259
    SETDIJ:  cpu time    0.1315: real time    0.1315
    TRIAL :  cpu time   67.7492: real time   67.7799
    CORREC:  cpu time    0.0011: real time    0.0011
    CHARGE:  cpu time    0.0456: real time    0.0456
    --------------------------------------------
      LOOP:  cpu time   68.0714: real time   68.1138

 eigenvalue-minimisations  :     0
 total energy-change (2. order) :-0.3992696E+01  (-0.8315042E+01)
 number of electron    1722.0003299 magnetization       0.0000000
 augmentation part      845.6886314 magnetization      -0.0072579

 Free energy of the ion-electron system (eV)
  ---------------------------------------------------
  alpha Z        PSCENC =     11210.35979291
  Ewald energy   TEWEN  =   -141765.42966631
  -Hartree energ DENC   =    -63077.08502176
  -exchange      EXHF   =      7553.58564467
  -V(xc)+E(xc)   XCENC  =      5285.81250197
  PAW double counting   =    208448.28318460  -223742.55704114
  entropy T*S    EENTRO =        -0.00000000
  eigenvalues    EBANDS =    -13385.53171072
  atomic energy  EATOM  =    208272.89128581
  ---------------------------------------------------
  free energy    TOTEN  =     -1199.67102996 eV

  energy without entropy =    -1199.67102996  energy(sigma->0) =    -1199.67102996
  exchange ACFDT corr.  =         0.00000000  see jH, gK, PRB 81, 115126


--------------------------------------------------------------------------------------------------------




--------------------------------------- Iteration      1(  11)  ---------------------------------------


    POTLOK:  cpu time    0.1257: real time    0.1257
    SETDIJ:  cpu time    0.1719: real time    0.1719
    TRIAL :  cpu time   67.6861: real time   67.7133
    CORREC:  cpu time    0.0015: real time    0.0015
    CHARGE:  cpu time    0.0439: real time    0.0439
    --------------------------------------------
      LOOP:  cpu time   68.0423: real time   68.0866

 eigenvalue-minimisations  :     0
 total energy-change (2. order) :-0.5249940E+01  (-0.3740491E+01)
 number of electron    1722.0003313 magnetization       0.0000000
 augmentation part      848.5496264 magnetization       0.0072951

 Free energy of the ion-electron system (eV)
  ---------------------------------------------------
  alpha Z        PSCENC =     11210.35979291
  Ewald energy   TEWEN  =   -141765.42966631
  -Hartree energ DENC   =    -63356.96985343
  -exchange      EXHF   =      7563.07070193
  -V(xc)+E(xc)   XCENC  =      5292.39306358
  PAW double counting   =    209050.93361051  -224521.00663847
  entropy T*S    EENTRO =        -0.00000000
  eigenvalues    EBANDS =    -12951.16326646
  atomic energy  EATOM  =    208272.89128581
  ---------------------------------------------------
  free energy    TOTEN  =     -1204.92096994 eV

  energy without entropy =    -1204.92096994  energy(sigma->0) =    -1204.92096994
  exchange ACFDT corr.  =         0.00000000  see jH, gK, PRB 81, 115126


--------------------------------------------------------------------------------------------------------




--------------------------------------- Iteration      1(  12)  ---------------------------------------


    POTLOK:  cpu time    0.1262: real time    0.1262
    SETDIJ:  cpu time    0.1435: real time    0.1435
    TRIAL :  cpu time   67.8452: real time   67.8749
    CORREC:  cpu time    0.0007: real time    0.0007
    CHARGE:  cpu time    0.0459: real time    0.0459
    --------------------------------------------
      LOOP:  cpu time   68.1758: real time   68.2211

 eigenvalue-minimisations  :     0
 total energy-change (2. order) :-0.1758717E+01  (-0.1466598E+01)
 number of electron    1722.0003309 magnetization       0.0000000
 augmentation part      848.9300039 magnetization       0.0088502

 Free energy of the ion-electron system (eV)
  ---------------------------------------------------
  alpha Z        PSCENC =     11210.35979291
  Ewald energy   TEWEN  =   -141765.42966631
  -Hartree energ DENC   =    -63733.06728603
  -exchange      EXHF   =      7582.60817868
  -V(xc)+E(xc)   XCENC  =      5304.37646303
  PAW double counting   =    209440.15404948  -225079.91393788
  entropy T*S    EENTRO =        -0.00000000
  eigenvalues    EBANDS =    -12438.65856627
  atomic energy  EATOM  =    208272.89128581
  ---------------------------------------------------
  free energy    TOTEN  =     -1206.67968658 eV

  energy without entropy =    -1206.67968658  energy(sigma->0) =    -1206.67968658
  exchange ACFDT corr.  =         0.00000000  see jH, gK, PRB 81, 115126


--------------------------------------------------------------------------------------------------------




--------------------------------------- Iteration      1(  13)  ---------------------------------------


    POTLOK:  cpu time    0.1290: real time    0.1290
    SETDIJ:  cpu time    0.1270: real time    0.1270
    TRIAL :  cpu time   67.7384: real time   67.7676
    CORREC:  cpu time    0.0015: real time    0.0015
    CHARGE:  cpu time    0.0436: real time    0.0436
    --------------------------------------------
      LOOP:  cpu time   68.0522: real time   68.1002

 eigenvalue-minimisations  :     0
 total energy-change (2. order) :-0.9632649E+00  (-0.8670837E+00)
 number of electron    1722.0003301 magnetization       0.0000000
 augmentation part      848.0907839 magnetization       0.0024166

 Free energy of the ion-electron system (eV)
  ---------------------------------------------------
  alpha Z        PSCENC =     11210.35979291
  Ewald energy   TEWEN  =   -141765.42966631
  -Hartree energ DENC   =    -63809.75255967
  -exchange      EXHF   =      7591.56466018
  -V(xc)+E(xc)   XCENC  =      5308.13805812
  PAW double counting   =    209463.11116580  -225087.93590321
  entropy T*S    EENTRO =        -0.00000000
  eigenvalues    EBANDS =    -12390.58978512
  atomic energy  EATOM  =    208272.89128581
  ---------------------------------------------------
  free energy    TOTEN  =     -1207.64295149 eV

  energy without entropy =    -1207.64295149  energy(sigma->0) =    -1207.64295149
  exchange ACFDT corr.  =         0.00000000  see jH, gK, PRB 81, 115126


--------------------------------------------------------------------------------------------------------




--------------------------------------- Iteration      1(  14)  ---------------------------------------


    POTLOK:  cpu time    0.1266: real time    0.1266
    SETDIJ:  cpu time    0.1254: real time    0.1255
    TRIAL :  cpu time   67.7641: real time   67.7940
    CORREC:  cpu time    0.0012: real time    0.0012
    CHARGE:  cpu time    0.0426: real time    0.0426
    --------------------------------------------
      LOOP:  cpu time   68.0735: real time   68.1194

 eigenvalue-minimisations  :     0
 total energy-change (2. order) :-0.3735052E+00  (-0.2166476E+00)
 number of electron    1722.0003302 magnetization       0.0000000
 augmentation part      847.9917444 magnetization      -0.0021974

 Free energy of the ion-electron system (eV)
  ---------------------------------------------------
  alpha Z        PSCENC =     11210.35979291
  Ewald energy   TEWEN  =   -141765.42966631
  -Hartree energ DENC   =    -63717.14286496
  -exchange      EXHF   =      7590.61182388
  -V(xc)+E(xc)   XCENC  =      5306.01293203
  PAW double counting   =    209385.22586898  -224930.74987786
  entropy T*S    EENTRO =        -0.00000000
  eigenvalues    EBANDS =    -12559.79575120
  atomic energy  EATOM  =    208272.89128581
  ---------------------------------------------------
  free energy    TOTEN  =     -1208.01645673 eV

  energy without entropy =    -1208.01645673  energy(sigma->0) =    -1208.01645673
  exchange ACFDT corr.  =        -0.00000000  see jH, gK, PRB 81, 115126


--------------------------------------------------------------------------------------------------------




--------------------------------------- Iteration      1(  15)  ---------------------------------------


    POTLOK:  cpu time    0.1267: real time    0.1267
    SETDIJ:  cpu time    0.1275: real time    0.1275
    TRIAL :  cpu time   67.7317: real time   67.7642
    CORREC:  cpu time    0.0016: real time    0.0016
    CHARGE:  cpu time    0.0465: real time    0.0465
    --------------------------------------------
      LOOP:  cpu time   68.0516: real time   68.0962

 eigenvalue-minimisations  :     0
 total energy-change (2. order) :-0.1358593E+00  (-0.1683609E+00)
 number of electron    1722.0003306 magnetization       0.0000000
 augmentation part      848.3682374 magnetization      -0.0036369

 Free energy of the ion-electron system (eV)
  ---------------------------------------------------
  alpha Z        PSCENC =     11210.35979291
  Ewald energy   TEWEN  =   -141765.42966631
  -Hartree energ DENC   =    -63695.81103181
  -exchange      EXHF   =      7589.09239650
  -V(xc)+E(xc)   XCENC  =      5305.04112048
  PAW double counting   =    209435.37799360  -224977.02153073
  entropy T*S    EENTRO =        -0.00000000
  eigenvalues    EBANDS =    -12582.65267646
  atomic energy  EATOM  =    208272.89128581
  ---------------------------------------------------
  free energy    TOTEN  =     -1208.15231600 eV

  energy without entropy =    -1208.15231600  energy(sigma->0) =    -1208.15231600
  exchange ACFDT corr.  =         0.00000000  see jH, gK, PRB 81, 115126


[...]
      6.49364      3.75184      9.82841         0.000629      0.001693     -0.001122
      6.49503      3.75269     15.03407         0.000025     -0.000453     -0.000678
      4.87280      6.56438      4.63044         0.002030      0.001193     -0.002204
      4.87240      6.56416      9.82988        -0.000435     -0.000083      0.000096
      4.87028      6.56294     15.03322         0.001041      0.000579     -0.002336
 -----------------------------------------------------------------------------------
    total drift:                               -0.003187      0.002283     -1.079338


--------------------------------------------------------------------------------------------------------



  FREE ENERGIE OF THE ION-ELECTRON SYSTEM (eV)
  ---------------------------------------------------
  free  energy   TOTEN  =     -1208.26108599 eV

  energy  without entropy=    -1208.26108599  energy(sigma->0) =    -1208.26108599
 
 d Force = 0.8010939E-04[ 0.230E-04, 0.137E-03]  d Energy = 0.1044108E-03-0.243E-04
 d Force = 0.1422454E+00[ 0.140E+00, 0.144E+00]  d Ewald  = 0.1422453E+00 0.101E-06


--------------------------------------------------------------------------------------------------------


    POTLOK:  cpu time    0.2598: real time    0.2605


--------------------------------------------------------------------------------------------------------


 Conjugate gradient step on ions:
 trial-energy change:   -0.000104  1 .order   -0.000080   -0.000137   -0.000023
  (g-gl).g = 0.147E-03      g.g   = 0.128E-03  gl.gl    = 0.276E-03
 g(Force)  = 0.128E-03   g(Stress)= 0.000E+00 ortho     =-0.195E-04
 gamma     =   0.53356
 trial     =   1.17145
 opt step  =   1.27022  (harmonic =   1.40687) maximal distance =0.00165227
 next E    = -1208.261087   (d E  =  -0.00011)


--------------------------------------------------------------------------------------------------------


  
 reached required accuracy - stopping structural energy minimisation
 writing wavefunctions
     LOOP+:  cpu time 1160.7142: real time 1161.6235
    4ORBIT:  cpu time    0.0000: real time    0.0000
 


 total charge     
 
# of ion       s       p       d       tot
------------------------------------------
    1        0.409   0.477   9.951  10.837
    2        0.409   0.478   9.951  10.838
    3        0.408   0.475   9.950  10.834
    4        0.409   0.478   9.951  10.837
    5        0.409   0.478   9.951  10.838
    6        0.408   0.476   9.950  10.834
    7        0.409   0.478   9.951  10.837
    8        0.409   0.479   9.951  10.840
    9        0.409   0.478   9.951  10.838
   10        0.409   0.478   9.951  10.837
   11        0.409   0.479   9.951  10.840
   12        0.409   0.478   9.951  10.838
   13        0.409   0.477   9.951  10.837
   14        0.409   0.478   9.951  10.838
   15        0.408   0.475   9.950  10.834
   16        0.410   0.480   9.952  10.842
   17        0.433   0.430   9.890  10.753
   18        0.412   0.487   9.954  10.853
   19        0.409   0.477   9.951  10.837
   20        0.409   0.478   9.951  10.838
   21        0.408   0.475   9.950  10.834
   22        0.409   0.478   9.951  10.838
   23        0.409   0.477   9.950  10.836
   24        0.408   0.477   9.951  10.836
   25        0.409   0.478   9.951  10.837
   26        0.409   0.479   9.951  10.839
   27        0.409   0.478   9.951  10.838
   28        0.409   0.478   9.951  10.837
   29        0.409   0.478   9.951  10.838
   30        0.408   0.476   9.950  10.834
   31        0.409   0.477   9.951  10.837
   32        0.409   0.478   9.951  10.838
   33        0.408   0.475   9.950  10.834
   34        0.409   0.478   9.951  10.837
   35        0.409   0.479   9.951  10.839
   36        0.409   0.478   9.951  10.838
   37        0.409   0.478   9.951  10.837
   38        0.409   0.479   9.951  10.839
   39        0.409   0.478   9.951  10.838
   40        0.409   0.478   9.951  10.838
   41        0.409   0.477   9.950  10.836
   42        0.408   0.477   9.951  10.836
   43        0.409   0.478   9.951  10.837
   44        0.409   0.479   9.951  10.840
   45        0.409   0.478   9.951  10.838
   46        0.409   0.478   9.951  10.838
   47        0.409   0.477   9.950  10.836
   48        0.408   0.477   9.951  10.836
   49        0.409   0.478   9.951  10.837
   50        0.409   0.476   9.950  10.835
   51        0.409   0.478   9.951  10.838
   52        0.409   0.478   9.951  10.837
   53        0.408   0.471   9.948  10.826
   54        0.409   0.477   9.951  10.836
   55        0.409   0.478   9.951  10.837
   56        0.408   0.471   9.948  10.826
   57        0.409   0.477   9.951  10.836
   58        0.409   0.478   9.951  10.837
   59        0.409   0.476   9.950  10.835
   60        0.409   0.478   9.951  10.839
   61        0.409   0.478   9.951  10.837
   62        0.409   0.476   9.950  10.835
   63        0.409   0.478   9.951  10.838
   64        0.409   0.478   9.951  10.839
   65        0.409   0.478   9.951  10.838
   66        0.408   0.476   9.950  10.835
   67        0.408   0.474   9.949  10.832
   68        0.431   0.424   9.890  10.745
   69        0.410   0.481   9.952  10.843
   70        0.409   0.478   9.951  10.839
   71        0.409   0.478   9.951  10.839
   72        0.408   0.476   9.950  10.835
   73        0.409   0.478   9.951  10.837
   74        0.408   0.471   9.948  10.826
   75        0.409   0.477   9.951  10.836
   76        0.409   0.478   9.951  10.837
   77        0.408   0.471   9.948  10.826
   78        0.409   0.477   9.951  10.836
   79        0.408   0.474   9.949  10.832
   80        0.431   0.424   9.890  10.745
   81        0.410   0.481   9.952  10.843
   82        0.408   0.474   9.949  10.832
   83        0.431   0.424   9.890  10.745
   84        0.410   0.481   9.952  10.843
   85        0.409   0.478   9.951  10.837
   86        0.408   0.471   9.948  10.826
   87        0.409   0.477   9.951  10.836
   88        0.409   0.478   9.951  10.839
   89        0.408   0.476   9.950  10.834
   90        0.409   0.478   9.951  10.838
   91        0.409   0.478   9.951  10.837
   92        0.408   0.471   9.948  10.826
   93        0.409   0.477   9.951  10.836
   94        0.409   0.478   9.951  10.839
   95        0.409   0.478   9.951  10.839
   96        0.408   0.476   9.950  10.835
   97        1.574   3.530   0.000   5.103
   98        1.577   3.521   0.000   5.098
   99        1.574   3.530   0.000   5.104
  100        1.574   3.530   0.000   5.103
  101        1.576   3.521   0.000   5.098
  102        1.574   3.530   0.000   5.104
  103        1.574   3.530   0.000   5.104
  104        1.574   3.529   0.000   5.103
  105        1.574   3.531   0.000   5.105
  106        1.574   3.530   0.000   5.104
  107        1.574   3.529   0.000   5.103
  108        1.574   3.531   0.000   5.105
  109        1.574   3.530   0.000   5.103
  110        1.576   3.521   0.000   5.098
  111        1.574   3.530   0.000   5.104
  112        1.574   3.535   0.000   5.109
  113        1.574   3.532   0.000   5.105
  114        1.574   3.530   0.000   5.103
  115        1.576   3.521   0.000   5.098
  116        1.574   3.530   0.000   5.104
  117        1.574   3.530   0.000   5.104
  118        1.575   3.525   0.000   5.100
  119        1.574   3.531   0.000   5.105
  120        1.574   3.531   0.000   5.104
  121        1.574   3.531   0.000   5.105
  122        1.574   3.531   0.000   5.105
  123        1.574   3.530   0.000   5.103
  124        1.576   3.521   0.000   5.098
  125        1.574   3.530   0.000   5.104
  126        1.574   3.530   0.000   5.103
  127        1.577   3.521   0.000   5.098
  128        1.574   3.530   0.000   5.104
  129        1.574   3.531   0.000   5.104
  130        1.574   3.531   0.000   5.105
  131        1.574   3.531   0.000   5.105
  132        1.574   3.531   0.000   5.104
  133        1.574   3.531   0.000   5.105
  134        1.574   3.531   0.000   5.105
  135        1.574   3.530   0.000   5.104
  136        1.575   3.525   0.000   5.100
  137        1.574   3.531   0.000   5.105
  138        1.574   3.530   0.000   5.104
  139        1.574   3.529   0.000   5.103
  140        1.574   3.531   0.000   5.105
  141        1.574   3.530   0.000   5.104
  142        1.575   3.525   0.000   5.100
  143        1.574   3.531   0.000   5.105
  144        1.574   3.531   0.000   5.104
  145        1.574   3.531   0.000   5.105
  146        1.574   3.531   0.000   5.105
  147        1.574   3.530   0.000   5.103
  148        1.574   3.531   0.000   5.105
  149        1.574   3.530   0.000   5.104
  150        1.574   3.530   0.000   5.103
  151        1.574   3.531   0.000   5.105
  152        1.574   3.530   0.000   5.104
  153        1.574   3.531   0.000   5.104
  154        1.574   3.531   0.000   5.105
  155        1.574   3.531   0.000   5.105
  156        1.574   3.531   0.000   5.104
  157        1.574   3.531   0.000   5.105
  158        1.574   3.531   0.000   5.105
  159        1.574   3.531   0.000   5.105
  160        1.574   3.532   0.000   5.106
  161        1.574   3.530   0.000   5.104
  162        1.576   3.522   0.000   5.098
  163        1.576   3.523   0.000   5.100
  164        1.574   3.532   0.000   5.106
  165        1.574   3.532   0.000   5.105
  166        1.574   3.532   0.000   5.106
  167        1.574   3.530   0.000   5.104
  168        1.574   3.530   0.000   5.103
  169        1.574   3.531   0.000   5.105
  170        1.574   3.530   0.000   5.104
  171        1.574   3.530   0.000   5.103
  172        1.574   3.531   0.000   5.105
  173        1.574   3.530   0.000   5.104
  174        1.576   3.522   0.000   5.098
  175        1.576   3.523   0.000   5.100
  176        1.574   3.532   0.000   5.106
  177        1.576   3.522   0.000   5.098
  178        1.576   3.523   0.000   5.100
  179        1.574   3.532   0.000   5.106
  180        1.574   3.530   0.000   5.103
  181        1.574   3.531   0.000   5.105
  182        1.574   3.530   0.000   5.104
  183        1.574   3.530   0.000   5.104
  184        1.574   3.531   0.000   5.105
  185        1.574   3.531   0.000   5.105
  186        1.574   3.530   0.000   5.103
  187        1.574   3.531   0.000   5.105
  188        1.574   3.530   0.000   5.104
  189        1.574   3.532   0.000   5.105
  190        1.574   3.532   0.000   5.106
  191        1.574   3.530   0.000   5.104
--------------------------------------------------
tot        188.885 380.889 955.0111524.786
 


 magnetization (x)
 
# of ion       s       p       d       tot
------------------------------------------
    1       -0.000  -0.000   0.000  -0.000
    2        0.000   0.000  -0.000  -0.000
    3        0.000   0.000   0.000   0.000
    4        0.000   0.000  -0.000   0.000
    5        0.000   0.000  -0.000   0.000
    6        0.000   0.000   0.000   0.000
    7       -0.000  -0.000   0.000  -0.000
    8       -0.000  -0.000   0.000  -0.000
    9        0.000   0.000  -0.000   0.000
   10       -0.000  -0.000   0.000  -0.000
   11       -0.000  -0.000   0.000  -0.000
   12        0.000   0.000  -0.000  -0.000
   13        0.000   0.000   0.000   0.000
   14       -0.000  -0.000  -0.000  -0.000
   15        0.000   0.000   0.000   0.000
   16       -0.000  -0.000  -0.000  -0.000
   17       -0.000   0.000  -0.000  -0.000
   18        0.000   0.000  -0.000   0.000
   19        0.000  -0.000   0.000   0.000
   20        0.000   0.000  -0.000   0.000
   21        0.000   0.000   0.000   0.000
   22        0.000   0.000  -0.000   0.000
   23       -0.000  -0.000   0.000  -0.000
   24       -0.000   0.000  -0.000  -0.000
   25       -0.000   0.000   0.000  -0.000
   26       -0.000  -0.000   0.000  -0.000
   27        0.000   0.000  -0.000   0.000
   28        0.000   0.000  -0.000   0.000
   29        0.000   0.000  -0.000   0.000
   30       -0.000  -0.000  -0.000  -0.000
   31       -0.000  -0.000   0.000  -0.000
   32       -0.000   0.000  -0.000  -0.000
   33        0.000   0.000   0.000   0.000
   34       -0.000  -0.000  -0.000  -0.000
   35       -0.000  -0.000   0.000  -0.000
   36       -0.000  -0.000  -0.000  -0.000
   37        0.000   0.000  -0.000   0.000
   38       -0.000  -0.000   0.000  -0.000
   39       -0.000  -0.000  -0.000  -0.000
   40        0.000  -0.000  -0.000  -0.000
   41       -0.000  -0.000   0.000   0.000
   42        0.000  -0.000  -0.000  -0.000
   43        0.000   0.000   0.000   0.000
   44        0.000   0.000   0.000   0.000
   45        0.000   0.000  -0.000   0.000
   46       -0.000  -0.000  -0.000  -0.000
   47        0.000   0.000   0.000   0.000
   48        0.000   0.000  -0.000   0.000
   49        0.000   0.000  -0.000   0.000
   50       -0.000  -0.000   0.000  -0.000
   51       -0.000  -0.000  -0.000  -0.000
   52        0.000   0.000  -0.000   0.000
   53       -0.000  -0.000   0.000   0.000
   54        0.000   0.000  -0.000   0.000
   55       -0.000  -0.000  -0.000  -0.000
   56       -0.000  -0.000   0.000  -0.000
   57        0.000   0.000   0.000   0.000
   58       -0.000   0.000  -0.000  -0.000
   59        0.000  -0.000   0.000   0.000
   60       -0.000  -0.000   0.000  -0.000
   61        0.000   0.000  -0.000   0.000
   62       -0.000   0.000   0.000  -0.000
   63        0.000  -0.000  -0.000  -0.000
   64       -0.000  -0.000   0.000  -0.000
   65        0.000   0.000  -0.000   0.000
   66       -0.000  -0.000   0.000  -0.000
   67        0.000  -0.000   0.000   0.000
   68        0.000   0.000  -0.000   0.000
   69        0.000  -0.000  -0.000  -0.000
   70       -0.000  -0.000   0.000  -0.000
   71        0.000   0.000  -0.000   0.000
   72       -0.000  -0.000   0.000  -0.000
   73        0.000  -0.000   0.000   0.000
   74       -0.000   0.000  -0.000   0.000
   75       -0.000  -0.000   0.000  -0.000
   76        0.000   0.000   0.000   0.000
   77       -0.000  -0.000   0.000   0.000
   78        0.000   0.000   0.000   0.000
   79        0.000   0.000   0.000   0.000
   80       -0.000   0.000  -0.000  -0.000
   81        0.000   0.000  -0.000   0.000
   82       -0.000  -0.000   0.000  -0.000
   83        0.000   0.000  -0.000   0.000
   84        0.000   0.000  -0.000   0.000
   85        0.000  -0.000   0.000   0.000
   86        0.000   0.000   0.000   0.000
   87       -0.000  -0.000   0.000  -0.000
   88       -0.000  -0.000  -0.000  -0.000
   89       -0.000  -0.000  -0.000  -0.000
   90        0.000   0.000  -0.000   0.000
   91        0.000  -0.000   0.000   0.000
   92       -0.000  -0.000   0.000  -0.000
   93        0.000   0.000   0.000   0.000
   94       -0.000  -0.000   0.000  -0.000
   95        0.000   0.000   0.000   0.000
   96       -0.000  -0.000   0.000  -0.000
   97       -0.000  -0.000   0.000  -0.000
   98        0.000  -0.000   0.000  -0.000
   99        0.000  -0.000   0.000   0.000
  100       -0.000  -0.000   0.000  -0.000
  101        0.000  -0.000   0.000  -0.000
  102       -0.000  -0.000   0.000  -0.000
  103       -0.000  -0.000   0.000  -0.000
  104       -0.000  -0.000   0.000  -0.000
  105       -0.000  -0.000   0.000  -0.000
  106       -0.000   0.000   0.000   0.000
  107       -0.000  -0.000   0.000  -0.000
  108       -0.000   0.000   0.000  -0.000
  109        0.000   0.000   0.000   0.000
  110        0.000  -0.000   0.000  -0.000
  111       -0.000  -0.000   0.000  -0.000
  112       -0.000  -0.000   0.000  -0.000
  113        0.000  -0.000   0.000  -0.000
  114       -0.000   0.000   0.000   0.000
  115        0.000   0.000   0.000   0.000
  116        0.000  -0.000   0.000  -0.000
  117       -0.000  -0.000   0.000  -0.000
  118        0.000   0.000   0.000   0.000
  119        0.000   0.000   0.000   0.000
  120       -0.000  -0.000   0.000  -0.000
  121        0.000   0.000   0.000   0.000
  122       -0.000  -0.000   0.000  -0.000
  123        0.000   0.000   0.000   0.000
  124       -0.000  -0.000   0.000  -0.000
  125       -0.000  -0.000   0.000  -0.000
  126       -0.000  -0.000   0.000  -0.000
  127       -0.000  -0.000   0.000  -0.000
  128       -0.000   0.000   0.000   0.000
  129       -0.000  -0.000   0.000  -0.000
  130        0.000   0.000   0.000   0.000
  131        0.000   0.000   0.000   0.000
  132       -0.000  -0.000   0.000  -0.000
  133        0.000   0.000   0.000   0.000
  134        0.000  -0.000   0.000  -0.000
  135        0.000   0.000   0.000   0.000
  136        0.000   0.000   0.000   0.000
  137       -0.000  -0.000   0.000  -0.000
  138        0.000   0.000   0.000   0.000
  139       -0.000  -0.000   0.000  -0.000
  140        0.000   0.000   0.000   0.000
  141        0.000   0.000   0.000   0.000
  142       -0.000  -0.000   0.000  -0.000
  143        0.000  -0.000   0.000  -0.000
  144       -0.000  -0.000   0.000  -0.000
  145       -0.000   0.000   0.000   0.000
  146        0.000   0.000   0.000   0.000
  147       -0.000  -0.000   0.000  -0.000
  148       -0.000   0.000   0.000   0.000
  149       -0.000  -0.000   0.000  -0.000
  150        0.000   0.000   0.000   0.000
  151        0.000   0.000   0.000   0.000
  152       -0.000  -0.000   0.000  -0.000
  153       -0.000  -0.000   0.000  -0.000
  154       -0.000  -0.000   0.000  -0.000
  155        0.000   0.000   0.000   0.000
  156        0.000   0.000   0.000   0.000
  157        0.000   0.000   0.000   0.000
  158       -0.000  -0.000   0.000  -0.000
  159        0.000   0.000   0.000   0.000
  160       -0.000  -0.000   0.000  -0.000
  161       -0.000  -0.000   0.000  -0.000
  162       -0.000  -0.000   0.000  -0.000
  163        0.000   0.000   0.000   0.000
  164        0.000   0.000   0.000   0.000
  165       -0.000   0.000   0.000  -0.000
  166       -0.000  -0.000   0.000  -0.000
  167       -0.000  -0.000   0.000  -0.000
  168        0.000   0.000   0.000   0.000
  169        0.000  -0.000   0.000  -0.000
  170        0.000   0.000   0.000   0.000
  171       -0.000  -0.000   0.000  -0.000
  172       -0.000  -0.000   0.000  -0.000
  173       -0.000  -0.000   0.000  -0.000
  174        0.000  -0.000   0.000  -0.000
  175       -0.000  -0.000   0.000  -0.000
  176       -0.000  -0.000   0.000  -0.000
  177       -0.000  -0.000   0.000  -0.000
  178       -0.000  -0.000   0.000  -0.000
  179        0.000   0.000   0.000   0.000
  180        0.000   0.000   0.000   0.000
  181        0.000   0.000   0.000   0.000
  182       -0.000  -0.000   0.000  -0.000
  183        0.000   0.000   0.000   0.000
  184        0.000   0.000   0.000   0.000
  185        0.000   0.000   0.000   0.000
  186       -0.000   0.000   0.000   0.000
  187        0.000   0.000   0.000   0.000
  188        0.000   0.000   0.000   0.000
  189        0.000   0.000   0.000   0.000
  190        0.000  -0.000   0.000  -0.000
  191       -0.000  -0.000   0.000  -0.000
--------------------------------------------------
tot         -0.000  -0.000   0.000  -0.000
 

 total amount of memory used by VASP MPI-rank0    50099. kBytes
=======================================================================

   base      :      30000. kBytes
   nonlr-proj:       6677. kBytes
   fftplans  :       2144. kBytes
   grid      :       4947. kBytes
   one-center:        373. kBytes
   HF        :        129. kBytes
   wavefun   :       5829. kBytes
 
  
  
 General timing and accounting informations for this job:
 ========================================================
  
                  Total CPU time used (sec):     6564.797
                            User time (sec):     6545.211
                          System time (sec):       19.586
                         Elapsed time (sec):     6563.464
  
                   Maximum memory used (kb):      509296.
                   Average memory used (kb):           0.
  
                          Minor page faults:      1597985
                          Major page faults:          527
                 Voluntary context switches:         8803
