  191  191   24    2
  0.1195271E+02  0.1299435E-08  0.1299435E-08  0.1561204E-08  0.5000000E-15
  1.000000000000000E-004
  CAR 
 zno                                     
   1722      1   1056
 
  0.0000000E+00  0.0000000E+00  0.0000000E+00  0.1000000E+01
      1        -67.461372      -65.772350   1.000000   1.000000
      2        -39.823283      -38.073433   1.000000   1.000000
      3        -39.823276      -38.073407   1.000000   1.000000
      4        -39.611471      -36.981410   1.000000   1.000000
      5        -21.709623      -21.566059   1.000000   1.000000
      6        -21.361766      -21.191311   1.000000   1.000000
      7        -21.361695      -21.191239   1.000000   1.000000
      8        -20.830576      -20.826197   1.000000   1.000000
      9        -20.710591      -20.710045   1.000000   1.000000
     10        -20.619205      -20.616463   1.000000   1.000000
     11        -20.619194      -20.616452   1.000000   1.000000
     12        -20.611580      -20.614326   1.000000   1.000000
     13        -20.552314      -20.548944   1.000000   1.000000
     14        -20.552306      -20.548935   1.000000   1.000000
     15        -20.543979      -20.541970   1.000000   1.000000
     16        -20.510479      -20.510525   1.000000   1.000000
     17        -20.465668      -20.465190   1.000000   1.000000
     18        -20.465661      -20.465184   1.000000   1.000000
     19        -20.404359      -20.406404   1.000000   1.000000
     20        -20.380677      -20.379943   1.000000   1.000000
     21        -20.380677      -20.379943   1.000000   1.000000
     22        -20.362625      -20.363764   1.000000   1.000000
     23        -20.362614      -20.363753   1.000000   1.000000
     24        -20.335723      -20.337443   1.000000   1.000000
     25        -20.324512      -20.325080   1.000000   1.000000
     26        -20.324504      -20.325072   1.000000   1.000000
     27        -20.315812      -20.315878   1.000000   1.000000
     28        -20.306596      -20.306728   1.000000   1.000000
     29        -20.297693      -20.296756   1.000000   1.000000
     30        -20.282971      -20.287374   1.000000   1.000000
     31        -20.268670      -20.269122   1.000000   1.000000
     32        -20.260547      -20.259917   1.000000   1.000000
     33        -20.250983      -20.251266   1.000000   1.000000
     34        -20.250964      -20.251247   1.000000   1.000000
     35        -20.217002      -20.216098   1.000000   1.000000
     36        -20.217000      -20.216095   1.000000   1.000000
     37        -20.202962      -20.201306   1.000000   1.000000
     38        -20.199739      -20.198789   1.000000   1.000000
     39        -20.199733      -20.198783   1.000000   1.000000
     40        -20.166336      -20.166670   1.000000   1.000000
     41        -20.140279      -20.139988   1.000000   1.000000
     42        -20.140268      -20.139977   1.000000   1.000000
     43        -20.136282      -20.136173   1.000000   1.000000
     44        -20.136274      -20.136166   1.000000   1.000000
     45        -20.113152      -20.117326   1.000000   1.000000
     46        -20.113147      -20.117321   1.000000   1.000000
     47        -20.112962      -20.112772   1.000000   1.000000
     48        -20.090789      -20.094640   1.000000   1.000000
     49        -20.072873      -20.072718   1.000000   1.000000
     50        -20.063320      -20.069507   1.000000   1.000000
     51        -20.063317      -20.069505   1.000000   1.000000
     52        -20.045720      -20.046353   1.000000   1.000000
     53        -20.042582      -20.043592   1.000000   1.000000
     54        -20.042579      -20.043589   1.000000   1.000000
     55        -20.037321      -20.038350   1.000000   1.000000
     56        -20.022754      -20.022748   1.000000   1.000000
     57        -20.022751      -20.022745   1.000000   1.000000
     58        -20.010626      -20.010839   1.000000   1.000000
     59        -20.010093      -20.010272   1.000000   1.000000
     60        -20.010089      -20.010267   1.000000   1.000000
     61        -20.002721      -20.002819   1.000000   1.000000
     62        -20.002719      -20.002816   1.000000   1.000000
     63        -20.000281      -20.000105   1.000000   1.000000
     64        -19.990286      -19.992495   1.000000   1.000000
     65        -19.990275      -19.992486   1.000000   1.000000
     66        -19.989896      -19.991022   1.000000   1.000000
     67        -19.977284      -19.977395   1.000000   1.000000
     68        -19.973624      -19.975263   1.000000   1.000000
     69        -19.973615      -19.975253   1.000000   1.000000
     70        -19.956654      -19.957048   1.000000   1.000000
     71        -19.926738      -19.928862   1.000000   1.000000
     72        -19.926733      -19.928858   1.000000   1.000000
     73        -19.920689      -19.920881   1.000000   1.000000
     74        -19.920687      -19.920879   1.000000   1.000000
     75        -19.917755      -19.919016   1.000000   1.000000
     76        -19.908187      -19.908307   1.000000   1.000000
     77        -19.908187      -19.908307   1.000000   1.000000
     78        -19.905031      -19.905427   1.000000   1.000000
     79        -19.897294      -19.897340   1.000000   1.000000
     80        -19.889037      -19.889708   1.000000   1.000000
     81        -19.889033      -19.889704   1.000000   1.000000
     82        -19.882904      -19.883051   1.000000   1.000000
     83        -19.866012      -19.866216   1.000000   1.000000
     84        -19.866010      -19.866214   1.000000   1.000000
     85        -19.862337      -19.862734   1.000000   1.000000
     86        -19.862323      -19.862721   1.000000   1.000000
     87        -19.850333      -19.850439   1.000000   1.000000
     88        -19.847087      -19.847187   1.000000   1.000000
     89        -19.847075      -19.847175   1.000000   1.000000
     90        -19.844838      -19.845004   1.000000   1.000000
     91        -19.806101      -19.806542   1.000000   1.000000
     92        -19.796334      -19.797422   1.000000   1.000000
     93        -19.796329      -19.797417   1.000000   1.000000
     94        -19.784043      -19.784659   1.000000   1.000000
     95        -19.766330      -19.766507   1.000000   1.000000
     96        -19.766327      -19.766504   1.000000   1.000000
     97        -19.761191      -19.761453   1.000000   1.000000
     98        -19.761185      -19.761447   1.000000   1.000000
     99        -19.759505      -19.759639   1.000000   1.000000
    100         -8.205367       -8.169941   1.000000   1.000000
    101         -8.205288       -8.169895   1.000000   1.000000
    102         -8.178960       -8.169787   1.000000   1.000000
    103         -8.172339       -8.132117   1.000000   1.000000
    104         -8.172263       -8.132052   1.000000   1.000000
    105         -8.133980       -8.123952   1.000000   1.000000
    106         -8.126559       -8.109679   1.000000   1.000000
    107         -8.126510       -8.109655   1.000000   1.000000
    108         -8.118841       -8.096324   1.000000   1.000000
    109         -8.099393       -8.091352   1.000000   1.000000
    110         -8.099349       -8.091296   1.000000   1.000000
    111         -8.075580       -8.070076   1.000000   1.000000
    112         -8.075529       -8.070034   1.000000   1.000000
    113         -8.048395       -8.045308   1.000000   1.000000
    114         -8.048384       -8.044202   1.000000   1.000000
    115         -8.047134       -8.044185   1.000000   1.000000
    116         -8.047002       -8.042480   1.000000   1.000000
    117         -8.029461       -8.013153   1.000000   1.000000
    118         -8.029426       -8.013131   1.000000   1.000000
    119         -7.995077       -7.991383   1.000000   1.000000
    120         -7.989540       -7.987198   1.000000   1.000000
    121         -7.989537       -7.987196   1.000000   1.000000
    122         -7.987261       -7.977651   1.000000   1.000000
    123         -7.978327       -7.972491   1.000000   1.000000
    124         -7.957805       -7.951034   1.000000   1.000000
    125         -7.957802       -7.951033   1.000000   1.000000
    126         -7.944716       -7.929721   1.000000   1.000000
    127         -7.925355       -7.921744   1.000000   1.000000
    128         -7.919505       -7.914290   1.000000   1.000000
    129         -7.919503       -7.914287   1.000000   1.000000
    130         -7.906593       -7.904819   1.000000   1.000000
    131         -7.900292       -7.883844   1.000000   1.000000
    132         -7.900263       -7.883827   1.000000   1.000000
    133         -7.857636       -7.853238   1.000000   1.000000
    134         -7.857616       -7.850827   1.000000   1.000000
    135         -7.850034       -7.850813   1.000000   1.000000
    136         -7.845450       -7.842670   1.000000   1.000000
    137         -7.843081       -7.839236   1.000000   1.000000
    138         -7.843043       -7.839202   1.000000   1.000000
    139         -7.827851       -7.823028   1.000000   1.000000
    140         -7.827831       -7.819254   1.000000   1.000000
    141         -7.824792       -7.819233   1.000000   1.000000
    142         -7.808343       -7.802503   1.000000   1.000000
    143         -7.808312       -7.802466   1.000000   1.000000
    144         -7.803674       -7.797987   1.000000   1.000000
    145         -7.798746       -7.796583   1.000000   1.000000
    146         -7.779235       -7.777209   1.000000   1.000000
    147         -7.779191       -7.777168   1.000000   1.000000
    148         -7.761745       -7.762081   1.000000   1.000000
    149         -7.761717       -7.762047   1.000000   1.000000
    150         -7.756579       -7.752924   1.000000   1.000000
    151         -7.756530       -7.750930   1.000000   1.000000
    152         -7.752999       -7.750888   1.000000   1.000000
    153         -7.742366       -7.741133   1.000000   1.000000
    154         -7.742331       -7.740288   1.000000   1.000000
    155         -7.741859       -7.740253   1.000000   1.000000
    156         -7.739450       -7.739496   1.000000   1.000000
    157         -7.725844       -7.725408   1.000000   1.000000
    158         -7.724713       -7.724287   1.000000   1.000000
    159         -7.724657       -7.724232   1.000000   1.000000
    160         -7.720735       -7.720639   1.000000   1.000000
    161         -7.715402       -7.715270   1.000000   1.000000
    162         -7.704693       -7.703734   1.000000   1.000000
    163         -7.704655       -7.703694   1.000000   1.000000
    164         -7.702534       -7.701974   1.000000   1.000000
    165         -7.702491       -7.701932   1.000000   1.000000
    166         -7.699372       -7.698194   1.000000   1.000000
    167         -7.696588       -7.696460   1.000000   1.000000
    168         -7.696535       -7.694662   1.000000   1.000000
    169         -7.696419       -7.694606   1.000000   1.000000
    170         -7.682244       -7.681713   1.000000   1.000000
    171         -7.678236       -7.677703   1.000000   1.000000
    172         -7.678200       -7.677666   1.000000   1.000000
    173         -7.671600       -7.670397   1.000000   1.000000
    174         -7.671564       -7.670363   1.000000   1.000000
    175         -7.666493       -7.665824   1.000000   1.000000
    176         -7.664534       -7.663006   1.000000   1.000000
    177         -7.664492       -7.662965   1.000000   1.000000
    178         -7.657171       -7.656923   1.000000   1.000000
    179         -7.657127       -7.656879   1.000000   1.000000
    180         -7.649661       -7.648728   1.000000   1.000000
    181         -7.649626       -7.648696   1.000000   1.000000
    182         -7.646947       -7.646576   1.000000   1.000000
    183         -7.643141       -7.638423   1.000000   1.000000
    184         -7.643095       -7.638368   1.000000   1.000000
    185         -7.635153       -7.633214   1.000000   1.000000
    186         -7.627156       -7.623314   1.000000   1.000000
    187         -7.627104       -7.623272   1.000000   1.000000
    188         -7.623857       -7.622918   1.000000   1.000000
    189         -7.611041       -7.610882   1.000000   1.000000
    190         -7.611010       -7.610851   1.000000   1.000000
    191         -7.608401       -7.605272   1.000000   1.000000
    192         -7.598573       -7.597555   1.000000   1.000000
    193         -7.598526       -7.597506   1.000000   1.000000
    194         -7.590496       -7.590329   1.000000   1.000000
    195         -7.590440       -7.589762   1.000000   1.000000
    196         -7.590407       -7.589706   1.000000   1.000000
    197         -7.585913       -7.585731   1.000000   1.000000
    198         -7.583108       -7.581261   1.000000   1.000000
    199         -7.583085       -7.581240   1.000000   1.000000
    200         -7.574902       -7.574689   1.000000   1.000000
    201         -7.574878       -7.573739   1.000000   1.000000
    202         -7.574787       -7.573713   1.000000   1.000000
    203         -7.572804       -7.570685   1.000000   1.000000
    204         -7.569085       -7.567882   1.000000   1.000000
    205         -7.569049       -7.567848   1.000000   1.000000
    206         -7.567069       -7.566275   1.000000   1.000000
    207         -7.563303       -7.562711   1.000000   1.000000
    208         -7.560745       -7.560138   1.000000   1.000000
    209         -7.560726       -7.560120   1.000000   1.000000
    210         -7.558814       -7.558681   1.000000   1.000000
    211         -7.556734       -7.556258   1.000000   1.000000
    212         -7.556702       -7.556229   1.000000   1.000000
    213         -7.554935       -7.554273   1.000000   1.000000
    214         -7.554897       -7.554233   1.000000   1.000000
    215         -7.546619       -7.540924   1.000000   1.000000
    216         -7.536258       -7.533704   1.000000   1.000000
    217         -7.536237       -7.533681   1.000000   1.000000
    218         -7.532137       -7.531466   1.000000   1.000000
    219         -7.528770       -7.528249   1.000000   1.000000
    220         -7.518483       -7.517438   1.000000   1.000000
    221         -7.518458       -7.517419   1.000000   1.000000
    222         -7.515359       -7.513618   1.000000   1.000000
    223         -7.515329       -7.513587   1.000000   1.000000
    224         -7.508224       -7.507499   1.000000   1.000000
    225         -7.504650       -7.504058   1.000000   1.000000
    226         -7.504603       -7.504002   1.000000   1.000000
    227         -7.502313       -7.502427   1.000000   1.000000
    228         -7.502283       -7.502401   1.000000   1.000000
    229         -7.499098       -7.498649   1.000000   1.000000
    230         -7.490946       -7.490650   1.000000   1.000000
    231         -7.485609       -7.485375   1.000000   1.000000
    232         -7.485554       -7.485319   1.000000   1.000000
    233         -7.484706       -7.484051   1.000000   1.000000
    234         -7.480124       -7.478475   1.000000   1.000000
    235         -7.477518       -7.475927   1.000000   1.000000
    236         -7.477482       -7.475892   1.000000   1.000000
    237         -7.466671       -7.466474   1.000000   1.000000
    238         -7.466097       -7.465548   1.000000   1.000000
    239         -7.466068       -7.465520   1.000000   1.000000
    240         -7.462125       -7.461956   1.000000   1.000000
    241         -7.459527       -7.457682   1.000000   1.000000
    242         -7.459498       -7.457655   1.000000   1.000000
    243         -7.451482       -7.451190   1.000000   1.000000
    244         -7.446404       -7.445970   1.000000   1.000000
    245         -7.446374       -7.445938   1.000000   1.000000
    246         -7.441350       -7.441616   1.000000   1.000000
    247         -7.441301       -7.440398   1.000000   1.000000
    248         -7.439310       -7.440351   1.000000   1.000000
    249         -7.439184       -7.438878   1.000000   1.000000
    250         -7.424554       -7.424283   1.000000   1.000000
    251         -7.424550       -7.424278   1.000000   1.000000
    252         -7.418706       -7.418452   1.000000   1.000000
    253         -7.418668       -7.417088   1.000000   1.000000
    254         -7.418591       -7.417051   1.000000   1.000000
    255         -7.410162       -7.409681   1.000000   1.000000
    256         -7.410047       -7.409485   1.000000   1.000000
    257         -7.405345       -7.405762   1.000000   1.000000
    258         -7.405327       -7.405745   1.000000   1.000000
    259         -7.397778       -7.393761   1.000000   1.000000
    260         -7.397737       -7.393720   1.000000   1.000000
    261         -7.380816       -7.380635   1.000000   1.000000
    262         -7.377511       -7.377204   1.000000   1.000000
    263         -7.377475       -7.377166   1.000000   1.000000
    264         -7.370540       -7.370031   1.000000   1.000000
    265         -7.370508       -7.369998   1.000000   1.000000
    266         -7.367785       -7.367599   1.000000   1.000000
    267         -7.363402       -7.363365   1.000000   1.000000
    268         -7.360085       -7.357980   1.000000   1.000000
    269         -7.360069       -7.357968   1.000000   1.000000
    270         -7.354198       -7.353140   1.000000   1.000000
    271         -7.354163       -7.353100   1.000000   1.000000
    272         -7.347264       -7.346967   1.000000   1.000000
    273         -7.347245       -7.346947   1.000000   1.000000
    274         -7.346466       -7.345907   1.000000   1.000000
    275         -7.342496       -7.342186   1.000000   1.000000
    276         -7.340049       -7.339094   1.000000   1.000000
    277         -7.340027       -7.338535   1.000000   1.000000
    278         -7.339148       -7.338516   1.000000   1.000000
    279         -7.332939       -7.332615   1.000000   1.000000
    280         -7.332918       -7.332590   1.000000   1.000000
    281         -7.329065       -7.327574   1.000000   1.000000
    282         -7.328445       -7.327355   1.000000   1.000000
    283         -7.326697       -7.326106   1.000000   1.000000
    284         -7.326664       -7.326076   1.000000   1.000000
    285         -7.316288       -7.316119   1.000000   1.000000
    286         -7.313535       -7.312996   1.000000   1.000000
    287         -7.313523       -7.312983   1.000000   1.000000
    288         -7.311601       -7.311457   1.000000   1.000000
    289         -7.311572       -7.311430   1.000000   1.000000
    290         -7.307611       -7.306828   1.000000   1.000000
    291         -7.304727       -7.304087   1.000000   1.000000
    292         -7.304701       -7.304058   1.000000   1.000000
    293         -7.302934       -7.302354   1.000000   1.000000
    294         -7.293431       -7.292411   1.000000   1.000000
    295         -7.293417       -7.292398   1.000000   1.000000
    296         -7.291937       -7.287627   1.000000   1.000000
    297         -7.291905       -7.287594   1.000000   1.000000
    298         -7.281867       -7.281853   1.000000   1.000000
    299         -7.280710       -7.280599   1.000000   1.000000
    300         -7.271920       -7.270594   1.000000   1.000000
    301         -7.271907       -7.270583   1.000000   1.000000
    302         -7.270044       -7.269354   1.000000   1.000000
    303         -7.262926       -7.262678   1.000000   1.000000
    304         -7.250104       -7.250122   1.000000   1.000000
    305         -7.249485       -7.249143   1.000000   1.000000
    306         -7.249464       -7.249121   1.000000   1.000000
    307         -7.247567       -7.247517   1.000000   1.000000
    308         -7.247543       -7.247493   1.000000   1.000000
    309         -7.241703       -7.241394   1.000000   1.000000
    310         -7.241693       -7.241384   1.000000   1.000000
    311         -7.231350       -7.230016   1.000000   1.000000
    312         -7.231319       -7.229987   1.000000   1.000000
    313         -7.228494       -7.227915   1.000000   1.000000
    314         -7.223022       -7.222693   1.000000   1.000000
    315         -7.223005       -7.222673   1.000000   1.000000
    316         -7.222054       -7.222033   1.000000   1.000000
    317         -7.215391       -7.215576   1.000000   1.000000
    318         -7.215371       -7.215556   1.000000   1.000000
    319         -7.211288       -7.211324   1.000000   1.000000
    320         -7.200851       -7.199684   1.000000   1.000000
    321         -7.200147       -7.199633   1.000000   1.000000
    322         -7.198498       -7.198438   1.000000   1.000000
    323         -7.198480       -7.198421   1.000000   1.000000
    324         -7.187295       -7.185970   1.000000   1.000000
    325         -7.187280       -7.185953   1.000000   1.000000
    326         -7.176844       -7.175828   1.000000   1.000000
    327         -7.176828       -7.175814   1.000000   1.000000
    328         -7.172301       -7.172380   1.000000   1.000000
    329         -7.170804       -7.170310   1.000000   1.000000
    330         -7.163368       -7.162585   1.000000   1.000000
    331         -7.163361       -7.162579   1.000000   1.000000
    332         -7.155106       -7.154197   1.000000   1.000000
    333         -7.143496       -7.143799   1.000000   1.000000
    334         -7.143489       -7.143799   1.000000   1.000000
    335         -7.143484       -7.143380   1.000000   1.000000
    336         -7.140060       -7.139929   1.000000   1.000000
    337         -7.134391       -7.134599   1.000000   1.000000
    338         -7.131480       -7.128375   1.000000   1.000000
    339         -7.131479       -7.128375   1.000000   1.000000
    340         -7.122194       -7.121197   1.000000   1.000000
    341         -7.122190       -7.121193   1.000000   1.000000
    342         -7.107429       -7.106830   1.000000   1.000000
    343         -7.107429       -7.106828   1.000000   1.000000
    344         -7.092879       -7.091189   1.000000   1.000000
    345         -7.092870       -7.091180   1.000000   1.000000
    346         -7.089153       -7.089366   1.000000   1.000000
    347         -7.081525       -7.081004   1.000000   1.000000
    348         -7.079570       -7.079754   1.000000   1.000000
    349         -7.079557       -7.079743   1.000000   1.000000
    350         -7.076619       -7.076175   1.000000   1.000000
    351         -7.076604       -7.076161   1.000000   1.000000
    352         -7.074836       -7.074581   1.000000   1.000000
    353         -7.074295       -7.074176   1.000000   1.000000
    354         -7.066796       -7.066205   1.000000   1.000000
    355         -7.066784       -7.066193   1.000000   1.000000
    356         -7.047467       -7.047482   1.000000   1.000000
    357         -7.047116       -7.046829   1.000000   1.000000
    358         -7.047103       -7.046817   1.000000   1.000000
    359         -7.044400       -7.043852   1.000000   1.000000
    360         -7.044400       -7.043849   1.000000   1.000000
    361         -7.043285       -7.043016   1.000000   1.000000
    362         -7.038267       -7.035162   1.000000   1.000000
    363         -7.038247       -7.035144   1.000000   1.000000
    364         -7.009785       -7.008953   1.000000   1.000000
    365         -7.001380       -7.002663   1.000000   1.000000
    366         -7.000192       -6.999495   1.000000   1.000000
    367         -6.999031       -6.996755   1.000000   1.000000
    368         -6.999006       -6.996725   1.000000   1.000000
    369         -6.992076       -6.991102   1.000000   1.000000
    370         -6.992061       -6.991092   1.000000   1.000000
    371         -6.982102       -6.981792   1.000000   1.000000
    372         -6.982084       -6.981773   1.000000   1.000000
    373         -6.975852       -6.976342   1.000000   1.000000
    374         -6.971745       -6.971498   1.000000   1.000000
    375         -6.961850       -6.959159   1.000000   1.000000
    376         -6.958694       -6.956071   1.000000   1.000000
    377         -6.958672       -6.956049   1.000000   1.000000
    378         -6.945179       -6.944435   1.000000   1.000000
    379         -6.944283       -6.943896   1.000000   1.000000
    380         -6.944269       -6.943884   1.000000   1.000000
    381         -6.935752       -6.935248   1.000000   1.000000
    382         -6.935746       -6.935242   1.000000   1.000000
    383         -6.932723       -6.932478   1.000000   1.000000
    384         -6.918578       -6.918815   1.000000   1.000000
    385         -6.916413       -6.911593   1.000000   1.000000
    386         -6.916403       -6.911582   1.000000   1.000000
    387         -6.912338       -6.910749   1.000000   1.000000
    388         -6.908971       -6.908060   1.000000   1.000000
    389         -6.908961       -6.908052   1.000000   1.000000
    390         -6.889466       -6.890411   1.000000   1.000000
    391         -6.881874       -6.881751   1.000000   1.000000
    392         -6.881868       -6.881745   1.000000   1.000000
    393         -6.878894       -6.878825   1.000000   1.000000
    394         -6.878099       -6.878000   1.000000   1.000000
    395         -6.878090       -6.877992   1.000000   1.000000
    396         -6.873739       -6.870209   1.000000   1.000000
    397         -6.873734       -6.870205   1.000000   1.000000
    398         -6.849552       -6.849747   1.000000   1.000000
    399         -6.846734       -6.846625   1.000000   1.000000
    400         -6.846703       -6.846594   1.000000   1.000000
    401         -6.839066       -6.838794   1.000000   1.000000
    402         -6.827725       -6.827523   1.000000   1.000000
    403         -6.823881       -6.822679   1.000000   1.000000
    404         -6.821839       -6.820470   1.000000   1.000000
    405         -6.821834       -6.820467   1.000000   1.000000
    406         -6.811763       -6.811604   1.000000   1.000000
    407         -6.810239       -6.808809   1.000000   1.000000
    408         -6.810237       -6.808808   1.000000   1.000000
    409         -6.800276       -6.799998   1.000000   1.000000
    410         -6.800270       -6.799992   1.000000   1.000000
    411         -6.789121       -6.788401   1.000000   1.000000
    412         -6.777992       -6.776864   1.000000   1.000000
    413         -6.777983       -6.776856   1.000000   1.000000
    414         -6.772867       -6.772802   1.000000   1.000000
    415         -6.772714       -6.772511   1.000000   1.000000
    416         -6.772704       -6.772501   1.000000   1.000000
    417         -6.765092       -6.765001   1.000000   1.000000
    418         -6.765085       -6.764994   1.000000   1.000000
    419         -6.757787       -6.758086   1.000000   1.000000
    420         -6.753941       -6.753875   1.000000   1.000000
    421         -6.753935       -6.753868   1.000000   1.000000
    422         -6.747806       -6.747628   1.000000   1.000000
    423         -6.738986       -6.736661   1.000000   1.000000
    424         -6.735808       -6.735497   1.000000   1.000000
    425         -6.735803       -6.735491   1.000000   1.000000
    426         -6.722385       -6.722089   1.000000   1.000000
    427         -6.717588       -6.716642   1.000000   1.000000
    428         -6.717580       -6.716632   1.000000   1.000000
    429         -6.715582       -6.715111   1.000000   1.000000
    430         -6.709268       -6.708886   1.000000   1.000000
    431         -6.709267       -6.708886   1.000000   1.000000
    432         -6.707806       -6.707779   1.000000   1.000000
    433         -6.707801       -6.707775   1.000000   1.000000
    434         -6.705620       -6.705555   1.000000   1.000000
    435         -6.691691       -6.691603   1.000000   1.000000
    436         -6.691690       -6.691602   1.000000   1.000000
    437         -6.690332       -6.687542   1.000000   1.000000
    438         -6.679512       -6.678653   1.000000   1.000000
    439         -6.679511       -6.678652   1.000000   1.000000
    440         -6.673705       -6.673679   1.000000   1.000000
    441         -6.668968       -6.667319   1.000000   1.000000
    442         -6.668954       -6.667306   1.000000   1.000000
    443         -6.667527       -6.666895   1.000000   1.000000
    444         -6.661901       -6.661839   1.000000   1.000000
    445         -6.661065       -6.660207   1.000000   1.000000
    446         -6.659035       -6.658344   1.000000   1.000000
    447         -6.659035       -6.658344   1.000000   1.000000
    448         -6.655915       -6.655906   1.000000   1.000000
    449         -6.655905       -6.655897   1.000000   1.000000
    450         -6.651989       -6.651851   1.000000   1.000000
    451         -6.650447       -6.650237   1.000000   1.000000
    452         -6.650434       -6.650225   1.000000   1.000000
    453         -6.645714       -6.645698   1.000000   1.000000
    454         -6.641844       -6.641293   1.000000   1.000000
    455         -6.641831       -6.641281   1.000000   1.000000
    456         -6.639805       -6.638909   1.000000   1.000000
    457         -6.639795       -6.638897   1.000000   1.000000
    458         -6.638571       -6.638186   1.000000   1.000000
    459         -6.634590       -6.634460   1.000000   1.000000
    460         -6.627831       -6.627335   1.000000   1.000000
    461         -6.627830       -6.627334   1.000000   1.000000
    462         -6.623844       -6.623144   1.000000   1.000000
    463         -6.615708       -6.615695   1.000000   1.000000
    464         -6.606003       -6.605618   1.000000   1.000000