       N       E                     dE             d eps       ncg     rms          ort
DAV:   1    -0.325439893983E+05   -0.32544E+05   -0.64020E+05  1056   0.263E+03
DAV:   2    -0.581472510673E+05   -0.25603E+05   -0.24118E+05  1056   0.722E+02
DAV:   3    -0.662694662739E+05   -0.81222E+04   -0.75268E+04  1056   0.320E+02
DAV:   4    -0.676828112996E+05   -0.14133E+04   -0.13740E+04  1056   0.147E+02
DAV:   5    -0.134147826116E+04    0.66341E+05   -0.31753E+03  1056   0.118E+02
SDA:   6    -0.565687936630E+03    0.77579E+03   -0.93300E+03  1056   0.311E+04 0.000E+00
DMP:   7    -0.112565858534E+04   -0.55997E+03   -0.11252E+03  1056   0.213E+03 0.368E+03
DMP:   8    -0.111142263024E+04    0.14236E+02   -0.71629E+02  1056   0.441E+03-0.459E+03
DMP:   9    -0.116131573099E+04   -0.49893E+02   -0.73390E+02  1056   0.206E+03 0.878E+02
DMP:  10    -0.120378007088E+04   -0.42464E+02   -0.16178E+02  1056   0.360E+02 0.407E+02
DMP:  11    -0.121003173201E+04   -0.62517E+01   -0.90658E+01  1056   0.345E+02-0.964E+01
DMP:  12    -0.121674232302E+04   -0.67106E+01   -0.75557E+01  1056   0.185E+02 0.150E+02
DMP:  13    -0.122130876840E+04   -0.45664E+01   -0.17679E+01  1056   0.352E+01 0.538E+01
DMP:  14    -0.122219269329E+04   -0.88392E+00   -0.10288E+01  1056   0.341E+01 0.365E-01
DMP:  15    -0.122296915429E+04   -0.77646E+00   -0.66992E+00  1056   0.146E+01 0.176E+01
DMP:  16    -0.122340914936E+04   -0.44000E+00   -0.18594E+00  1056   0.310E+00 0.701E+00
DMP:  17    -0.122351936525E+04   -0.11022E+00   -0.90439E-01  1056   0.251E+00 0.114E+00
DMP:  18    -0.122358873835E+04   -0.69373E-01   -0.65278E-01  1056   0.147E+00 0.160E+00
DMP:  19    -0.122363314418E+04   -0.44406E-01   -0.20486E-01  1056   0.338E-01 0.781E-01
DMP:  20    -0.122364537375E+04   -0.12230E-01   -0.88868E-02  1056   0.238E-01 0.131E-01
DMP:  21    -0.122365244430E+04   -0.70705E-02   -0.67717E-02  1056   0.149E-01 0.174E-01
DMP:  22    -0.122365772838E+04   -0.52841E-02   -0.34280E-02  1056   0.588E-02 0.126E-01
DMP:  23    -0.122366046602E+04   -0.27376E-02   -0.21400E-02  1056   0.415E-02 0.675E-02
DMP:  24    -0.122366238903E+04   -0.19230E-02   -0.17567E-02  1056   0.336E-02 0.564E-02
DMP:  25    -0.122366397275E+04   -0.15837E-02   -0.12963E-02  1056   0.225E-02 0.468E-02
DMP:  26    -0.122366515428E+04   -0.11815E-02   -0.10040E-02  1056   0.178E-02 0.354E-02
DMP:  27    -0.122366610842E+04   -0.95413E-03   -0.85432E-03  1056   0.152E-02 0.301E-02
DMP:  28    -0.122366692531E+04   -0.81689E-03   -0.72213E-03  1056   0.126E-02 0.259E-02
DMP:  29    -0.122366761791E+04   -0.69260E-03   -0.61540E-03  1056   0.108E-02 0.220E-02
DMP:  30    -0.122366821129E+04   -0.59338E-03   -0.53283E-03  1056   0.937E-03 0.190E-02
DMP:  31    -0.122366872606E+04   -0.51477E-03   -0.46340E-03  1056   0.815E-03 0.165E-02
DMP:  32    -0.122366917392E+04   -0.44786E-03   -0.40384E-03  1056   0.711E-03 0.144E-02
DMP:  33    -0.122366956459E+04   -0.39067E-03   -0.35312E-03  1056   0.622E-03 0.126E-02
DMP:  34    -0.122366990645E+04   -0.34186E-03   -0.30916E-03  1056   0.545E-03 0.110E-02
DMP:  35    -0.122367020587E+04   -0.29942E-03   -0.27086E-03  1056   0.477E-03 0.964E-03
DMP:  36    -0.122367046825E+04   -0.26239E-03   -0.23754E-03  1056   0.419E-03 0.845E-03
DMP:  37    -0.122367069839E+04   -0.23014E-03   -0.20861E-03  1056   0.368E-03 0.742E-03
DMP:  38    -0.122367090054E+04   -0.20214E-03   -0.18363E-03  1056   0.324E-03 0.652E-03
DMP:  39    -0.122367107839E+04   -0.17785E-03   -0.16223E-03  1056   0.288E-03 0.573E-03
DMP:  40    -0.122367123489E+04   -0.15650E-03   -0.14574E-03  1056   0.264E-03 0.502E-03
DMP:  41    -0.122367137067E+04   -0.13577E-03   -0.14548E-03  1056   0.300E-03 0.419E-03
DMP:  42    -0.122367148036E+04   -0.10969E-03   -0.20366E-03  1056   0.570E-03 0.245E-03
DMP:  43    -0.122367154156E+04   -0.61207E-04   -0.42592E-03  1056   0.154E-02-0.270E-03
DMP:  44    -0.122367152813E+04    0.13436E-04   -0.89460E-03  1056   0.365E-02-0.151E-02
DMP:  45    -0.122367145771E+04    0.70418E-04   -0.14212E-02  1056   0.626E-02-0.345E-02
DMP:  46    -0.122367147465E+04   -0.16940E-04   -0.14351E-02  1056   0.683E-02-0.463E-02
DMP:  47    -0.122367167522E+04   -0.20057E-03   -0.78621E-03  1056   0.414E-02-0.345E-02
DMP:  48    -0.122367191559E+04   -0.24037E-03   -0.21806E-03  1056   0.118E-02-0.102E-02
DMP:  49    -0.122367198824E+04   -0.72654E-04   -0.29034E-03  1056   0.107E-02-0.243E-03
DMP:  50    -0.122367194253E+04    0.45711E-04   -0.68949E-03  1056   0.286E-02-0.127E-02
DMP:  51    -0.122367185870E+04    0.83827E-04   -0.11321E-02  1056   0.504E-02-0.286E-02
DMP:  52    -0.122367183878E+04    0.19919E-04   -0.11836E-02  1056   0.567E-02-0.391E-02
DMP:  53    -0.122367198151E+04   -0.14273E-03   -0.63234E-03  1056   0.343E-02-0.299E-02
DMP:  54    -0.122367216787E+04   -0.18636E-03   -0.15475E-03  1056   0.898E-03-0.866E-03
DMP:  55    -0.122367221446E+04   -0.46583E-04   -0.15884E-03  1056   0.620E-03-0.206E-03
DMP:  56    -0.122367221772E+04   -0.32633E-05   -0.19478E-03  1056   0.873E-03-0.507E-03
DMP:  57    -0.122367225352E+04   -0.35802E-04   -0.13854E-03  1056   0.643E-03-0.411E-03
DMP:  58    -0.122367227633E+04   -0.22807E-04   -0.11922E-03  1056   0.534E-03-0.310E-03
DMP:  59    -0.122367229314E+04   -0.16813E-04   -0.12131E-03  1056   0.530E-03-0.285E-03
DMP:  60    -0.122367230185E+04   -0.87087E-05   -0.13102E-03  1056   0.590E-03-0.347E-03
DMP:  61    -0.122367231752E+04   -0.15671E-04   -0.10918E-03  1056   0.511E-03-0.332E-03
DMP:  62    -0.122367233075E+04   -0.13228E-04   -0.11142E-03  1056   0.493E-03-0.276E-03
DMP:  63    -0.122367232846E+04    0.22888E-05   -0.17239E-03  1056   0.745E-03-0.387E-03
DMP:  64    -0.122367230871E+04    0.19747E-04   -0.28231E-03  1056   0.125E-02-0.706E-03
DMP:  65    -0.122367228842E+04    0.20289E-04   -0.38415E-03  1056   0.176E-02-0.108E-02
DMP:  66    -0.122367227474E+04    0.13682E-04   -0.43476E-03  1056   0.205E-02-0.137E-02
DMP:  67    -0.122367228190E+04   -0.71578E-05   -0.42165E-03  1056   0.202E-02-0.140E-02
DMP:  68    -0.122367229195E+04   -0.10048E-04   -0.40025E-03  1056   0.193E-02-0.134E-02
DMP:  69    -0.122367230165E+04   -0.97014E-05   -0.36647E-03  1056   0.178E-02-0.127E-02
DMP:  70    -0.122367232413E+04   -0.22484E-04   -0.28674E-03  1056   0.143E-02-0.107E-02
DMP:  71    -0.122367235019E+04   -0.26055E-04   -0.20544E-03  1056   0.103E-02-0.782E-03
DMP:  72    -0.122367236771E+04   -0.17517E-04   -0.16083E-03  1056   0.787E-03-0.568E-03
DMP:  73    -0.122367237429E+04   -0.65825E-05   -0.14461E-03  1056   0.699E-03-0.492E-03
DMP:  74    -0.122367238280E+04   -0.85143E-05   -0.12482E-03  1056   0.604E-03-0.426E-03
DMP:  75    -0.122367238688E+04   -0.40776E-05   -0.11084E-03  1056   0.541E-03-0.389E-03
DMP:  76    -0.122367239567E+04   -0.87841E-05   -0.85686E-04  1056   0.423E-03-0.311E-03
DMP:  77    -0.122367240168E+04   -0.60115E-05   -0.65499E-04  1056   0.327E-03-0.245E-03
DMP:  78    -0.122367240907E+04   -0.73916E-05   -0.43905E-04  1056   0.221E-03-0.169E-03
DMP:  79    -0.122367241389E+04   -0.48225E-05   -0.29961E-04  1056   0.150E-03-0.114E-03
DMP:  80    -0.122367241775E+04   -0.38575E-05   -0.20274E-04  1056   0.100E-03-0.741E-04
DMP:  81    -0.122367242004E+04   -0.22914E-05   -0.15341E-04  1056   0.743E-04-0.524E-04
DMP:  82    -0.122367242156E+04   -0.15250E-05   -0.12954E-04  1056   0.612E-04-0.409E-04
DMP:  83    -0.122367242237E+04   -0.80903E-06   -0.13366E-04  1056   0.613E-04-0.379E-04
DMP:  84    -0.122367242213E+04    0.24047E-06   -0.16939E-04  1056   0.768E-04-0.461E-04
DMP:  85    -0.122367242172E+04    0.41608E-06   -0.21037E-04  1056   0.963E-04-0.594E-04
DMP:  86    -0.122367242087E+04    0.84638E-06   -0.24338E-04  1056   0.115E-03-0.757E-04
DMP:  87    -0.122367242200E+04   -0.11287E-05   -0.20962E-04  1056   0.102E-03-0.737E-04
DMP:  88    -0.122367242355E+04   -0.15522E-05   -0.14555E-04  1056   0.748E-04-0.595E-04
DMP:  89    -0.122367242616E+04   -0.26108E-05   -0.69828E-05  1056   0.370E-04-0.312E-04
DMP:  90    -0.122367242749E+04   -0.13271E-05   -0.33798E-05  1056   0.176E-04-0.144E-04
DMP:  91    -0.122367242819E+04   -0.69987E-06   -0.19333E-05  1056   0.936E-05-0.659E-05
DMP:  92    -0.122367242859E+04   -0.40373E-06   -0.15939E-05  1056   0.699E-05-0.380E-05
DMP:  93    -0.122367242853E+04    0.62428E-07   -0.29724E-05  1056   0.124E-04-0.569E-05
DMP:  94    -0.122367242784E+04    0.68710E-06   -0.81109E-05  1056   0.335E-04-0.146E-04
DMP:  95    -0.122367242471E+04    0.31371E-05   -0.23847E-04  1056   0.101E-03-0.479E-04
DMP:  96    -0.122367241858E+04    0.61272E-05   -0.50604E-04  1056   0.222E-03-0.120E-03
DMP:  97    -0.122367241101E+04    0.75732E-05   -0.71063E-04  1056   0.334E-03-0.219E-03
DMP:  98    -0.122367241442E+04   -0.34102E-05   -0.49370E-04  1056   0.259E-03-0.214E-03
DMP:  99    -0.122367242396E+04   -0.95390E-05   -0.13578E-04  1056   0.898E-04-0.101E-03
DMP: 100    -0.122367242882E+04   -0.48617E-05   -0.48932E-05  1056   0.220E-04-0.129E-04
DMP: 101    -0.122367242747E+04    0.13506E-05   -0.10494E-04  1056   0.462E-04-0.253E-04
DMP: 102    -0.122367242716E+04    0.30498E-06   -0.99922E-05  1056   0.496E-04-0.370E-04
DMP: 103    -0.122367242833E+04   -0.11710E-05   -0.65174E-05  1056   0.330E-04-0.255E-04
DMP: 104    -0.122367242863E+04   -0.29805E-06   -0.59018E-05  1056   0.284E-04-0.197E-04
DMP: 105    -0.122367242861E+04    0.16851E-07   -0.66378E-05  1056   0.309E-04-0.198E-04
DMP: 106    -0.122367242820E+04    0.41019E-06   -0.79426E-05  1056   0.375E-04-0.249E-04
DMP: 107    -0.122367242832E+04   -0.12158E-06   -0.75882E-05  1056   0.366E-04-0.257E-04
DMP: 108    -0.122367242841E+04   -0.82349E-07   -0.67115E-05  1056   0.333E-04-0.247E-04
DMP: 109    -0.122367242915E+04   -0.73924E-06   -0.43739E-05  1056   0.223E-04-0.175E-04
DMP: 110    -0.122367242939E+04   -0.24411E-06   -0.35749E-05  1056   0.176E-04-0.129E-04
DMP: 111    -0.122367242953E+04   -0.13510E-06   -0.39345E-05  1056   0.180E-04-0.111E-04
DMP: 112    -0.122367242886E+04    0.66226E-06   -0.66476E-05  1056   0.299E-04-0.175E-04
DMP: 113    -0.122367242822E+04    0.64661E-06   -0.99541E-05  1056   0.449E-04-0.266E-04
DMP: 114    -0.122367242688E+04    0.13348E-05   -0.14120E-04  1056   0.656E-04-0.420E-04
DMP: 115    -0.122367242691E+04   -0.29322E-07   -0.13430E-04  1056   0.655E-04-0.470E-04
DMP: 116    -0.122367242752E+04   -0.61041E-06   -0.94857E-05  1056   0.495E-04-0.406E-04
DMP: 117    -0.122367242920E+04   -0.16819E-05   -0.44254E-05  1056   0.238E-04-0.205E-04
DMP: 118    -0.122367242955E+04   -0.34143E-06   -0.32546E-05  1056   0.163E-04-0.124E-04
DMP: 119    -0.122367242985E+04   -0.30224E-06   -0.24345E-05  1056   0.120E-04-0.890E-05
DMP: 120    -0.122367242991E+04   -0.64290E-07   -0.19801E-05  1056   0.997E-05-0.763E-05
DMP: 121    -0.122367243015E+04   -0.23660E-06   -0.13075E-05  1056   0.660E-05-0.507E-05
DMP: 122    -0.122367243017E+04   -0.24113E-07   -0.11671E-05  1056   0.573E-05-0.416E-05
DMP: 123    -0.122367243023E+04   -0.61889E-07   -0.10919E-05  1056   0.519E-05-0.352E-05
DMP: 124    -0.122367243016E+04    0.70620E-07   -0.12993E-05  1056   0.613E-05-0.408E-05
DMP: 125    -0.122367243018E+04   -0.18059E-07   -0.11912E-05  1056   0.584E-05-0.424E-05
DMP: 126    -0.122367243026E+04   -0.81505E-07   -0.75275E-06  1056   0.401E-05-0.340E-05
   1 F= -.12236724E+04 E0= -.12236724E+04  d E =-.122367E+04  mag=     2.0000
       N       E                     dE             d eps       ncg     rms          ort
SDA:   1    -0.122151879705E+04    0.21536E+01   -0.17927E+01  1056   0.598E+01 0.000E+00
DMP:   2    -0.122281600975E+04   -0.12972E+01   -0.90485E+00  1056   0.184E+01 0.267E+01
DMP:   3    -0.122340170053E+04   -0.58569E+00   -0.32951E+00  1056   0.706E+00 0.889E+00
DMP:   4    -0.122360381291E+04   -0.20211E+00   -0.10597E+00  1056   0.243E+00 0.249E+00
DMP:   5    -0.122365638023E+04   -0.52567E-01   -0.24878E-01  1056   0.841E-01-0.270E-02
DMP:   6    -0.122366529848E+04   -0.89183E-02   -0.12448E-01  1056   0.519E-01-0.235E-01
DMP:   7    -0.122367229879E+04   -0.70003E-02   -0.94456E-02  1056   0.292E-01 0.514E-02
DMP:   8    -0.122367868368E+04   -0.63849E-02   -0.58207E-02  1056   0.145E-01 0.111E-01
DMP:   9    -0.122368266611E+04   -0.39824E-02   -0.27715E-02  1056   0.608E-02 0.716E-02
DMP:  10    -0.122368448612E+04   -0.18200E-02   -0.11007E-02  1056   0.238E-02 0.291E-02
DMP:  11    -0.122368517876E+04   -0.69264E-03   -0.42034E-03  1056   0.980E-03 0.954E-03
DMP:  12    -0.122368544297E+04   -0.26420E-03   -0.19148E-03  1056   0.479E-03 0.361E-03
DMP:  13    -0.122368557675E+04   -0.13379E-03   -0.11878E-03  1056   0.284E-03 0.253E-03
DMP:  14    -0.122368566877E+04   -0.92019E-04   -0.79532E-04  1056   0.169E-03 0.217E-03
DMP:  15    -0.122368573353E+04   -0.64758E-04   -0.52843E-04  1056   0.102E-03 0.167E-03
DMP:  16    -0.122368577822E+04   -0.44689E-04   -0.35553E-04  1056   0.646E-04 0.122E-03
DMP:  17    -0.122368580958E+04   -0.31357E-04   -0.25623E-04  1056   0.455E-04 0.904E-04
DMP:  18    -0.122368583301E+04   -0.23430E-04   -0.19778E-04  1056   0.347E-04 0.706E-04
DMP:  19    -0.122368585149E+04   -0.18485E-04   -0.15882E-04  1056   0.277E-04 0.572E-04
DMP:  20    -0.122368586650E+04   -0.15011E-04   -0.13003E-04  1056   0.225E-04 0.471E-04
DMP:  21    -0.122368587886E+04   -0.12362E-04   -0.10749E-04  1056   0.186E-04 0.391E-04
DMP:  22    -0.122368588912E+04   -0.10252E-04   -0.89363E-05  1056   0.154E-04 0.325E-04
DMP:  23    -0.122368589766E+04   -0.85425E-05   -0.74643E-05  1056   0.129E-04 0.272E-04
DMP:  24    -0.122368590480E+04   -0.71455E-05   -0.62554E-05  1056   0.108E-04 0.228E-04
DMP:  25    -0.122368591080E+04   -0.59943E-05   -0.52545E-05  1056   0.907E-05 0.191E-04
DMP:  26    -0.122368591584E+04   -0.50380E-05   -0.44214E-05  1056   0.764E-05 0.161E-04
DMP:  27    -0.122368592008E+04   -0.42413E-05   -0.37277E-05  1056   0.645E-05 0.135E-04
DMP:  28    -0.122368592366E+04   -0.35775E-05   -0.31499E-05  1056   0.545E-05 0.114E-04
DMP:  29    -0.122368592668E+04   -0.30246E-05   -0.26682E-05  1056   0.463E-05 0.966E-05
DMP:  30    -0.122368592924E+04   -0.25635E-05   -0.22658E-05  1056   0.393E-05 0.819E-05
DMP:  31    -0.122368593142E+04   -0.21779E-05   -0.19288E-05  1056   0.335E-05 0.696E-05
DMP:  32    -0.122368593328E+04   -0.18553E-05   -0.16469E-05  1056   0.287E-05 0.593E-05
DMP:  33    -0.122368593486E+04   -0.15850E-05   -0.14103E-05  1056   0.246E-05 0.507E-05
DMP:  34    -0.122368593622E+04   -0.13571E-05   -0.12137E-05  1056   0.213E-05 0.434E-05
DMP:  35    -0.122368593738E+04   -0.11601E-05   -0.10775E-05  1056   0.197E-05 0.368E-05
DMP:  36    -0.122368593835E+04   -0.96703E-06   -0.12261E-05  1056   0.283E-05 0.284E-05
DMP:  37    -0.122368593884E+04   -0.49047E-06   -0.38442E-05  1056   0.132E-04-0.795E-06
DMP:  38    -0.122368593682E+04    0.20175E-05   -0.23436E-04  1056   0.898E-04-0.264E-04
DMP:  39    -0.122368591926E+04    0.17557E-04   -0.13611E-03  1056   0.540E-03-0.195E-03
DMP:  40    -0.122368583945E+04    0.79810E-04   -0.58241E-03  1056   0.238E-02-0.987E-03
DMP:  41    -0.122368558724E+04    0.25221E-03   -0.17732E-02  1056   0.751E-02-0.362E-02
DMP:  42    -0.122368513125E+04    0.45599E-03   -0.35904E-02  1056   0.159E-01-0.895E-02
DMP:  43    -0.122368470801E+04    0.42324E-03   -0.48128E-02  1056   0.226E-01-0.148E-01
DMP:  44    -0.122368468157E+04    0.26431E-04   -0.48186E-02  1056   0.232E-01-0.162E-01
DMP:  45    -0.122368439745E+04    0.28412E-03   -0.73802E-02  1056   0.325E-01-0.180E-01
DMP:  46    -0.122368197198E+04    0.24255E-02   -0.20730E-01  1056   0.871E-01-0.408E-01
DMP:  47    -0.122367477081E+04    0.72012E-02   -0.54973E-01  1056   0.235E+00-0.117E+00
DMP:  48    -0.122366100749E+04    0.13763E-01   -0.11034E+00  1056   0.489E+00-0.275E+00
DMP:  49    -0.122364779969E+04    0.13208E-01   -0.15079E+00  1056   0.704E+00-0.456E+00
DMP:  50    -0.122364656136E+04    0.12383E-02   -0.14010E+00  1056   0.692E+00-0.510E+00
DMP:  51    -0.122365560328E+04   -0.90419E-02   -0.11162E+00  1056   0.552E+00-0.407E+00
DMP:  52    -0.122365384069E+04    0.17626E-02   -0.12003E+00  1056   0.570E+00-0.384E+00
DMP:  53    -0.122365311866E+04    0.72204E-03   -0.11301E+00  1056   0.556E+00-0.405E+00
DMP:  54    -0.122366023637E+04   -0.71177E-02   -0.76188E-01  1056   0.399E+00-0.329E+00
DMP:  55    -0.122367550196E+04   -0.15266E-01   -0.27798E-01  1056   0.160E+00-0.152E+00
DMP:  56    -0.122368281536E+04   -0.73134E-02   -0.61299E-02  1056   0.398E-01-0.438E-01
DMP:  57    -0.122368519482E+04   -0.23795E-02   -0.16576E-02  1056   0.756E-02-0.461E-02
DMP:  58    -0.122368532385E+04   -0.12903E-03   -0.21328E-02  1056   0.917E-02-0.466E-02
DMP:  59    -0.122368532136E+04    0.24868E-05   -0.19517E-02  1056   0.965E-02-0.711E-02
DMP:  60    -0.122368565645E+04   -0.33509E-03   -0.90221E-03  1056   0.490E-02-0.429E-02
DMP:  61    -0.122368580145E+04   -0.14499E-03   -0.37696E-03  1056   0.215E-02-0.202E-02
DMP:  62    -0.122368591240E+04   -0.11095E-03   -0.83409E-04  1056   0.512E-03-0.530E-03
DMP:  63    -0.122368593225E+04   -0.19849E-04   -0.29442E-04  1056   0.160E-03-0.139E-03
DMP:  64    -0.122368593890E+04   -0.66566E-05   -0.14563E-04  1056   0.732E-04-0.559E-04
DMP:  65    -0.122368594130E+04   -0.23977E-05   -0.99198E-05  1056   0.478E-04-0.333E-04
DMP:  66    -0.122368594192E+04   -0.62051E-06   -0.65769E-05  1056   0.339E-04-0.272E-04
DMP:  67    -0.122368594345E+04   -0.15298E-05   -0.30739E-05  1056   0.161E-04-0.133E-04
DMP:  68    -0.122368594370E+04   -0.24489E-06   -0.17224E-05  1056   0.913E-05-0.767E-05
DMP:  69    -0.122368594413E+04   -0.43742E-06   -0.70292E-06  1056   0.380E-05-0.329E-05
   2 F= -.12236859E+04 E0= -.12236859E+04  d E =-.135139E-01  mag=     2.0000
       N       E                     dE             d eps       ncg     rms          ort
SDA:   1    -0.122340959593E+04    0.27635E+00   -0.23490E+00  1056   0.783E+00 0.000E+00
DMP:   2    -0.122358021152E+04   -0.17062E+00   -0.11721E+00  1056   0.234E+00 0.354E+00
DMP:   3    -0.122365613433E+04   -0.75923E-01   -0.40736E-01  1056   0.848E-01 0.115E+00
DMP:   4    -0.122368130828E+04   -0.25174E-01   -0.13775E-01  1056   0.318E-01 0.320E-01
DMP:   5    -0.122368854455E+04   -0.72363E-02   -0.40441E-02  1056   0.125E-01 0.233E-02
DMP:   6    -0.122369030140E+04   -0.17569E-02   -0.17229E-02  1056   0.651E-02-0.175E-02
DMP:   7    -0.122369120797E+04   -0.90657E-03   -0.11879E-02  1056   0.382E-02 0.317E-03
DMP:   8    -0.122369200041E+04   -0.79245E-03   -0.70174E-03  1056   0.175E-02 0.133E-02
DMP:   9    -0.122369247065E+04   -0.47024E-03   -0.31005E-03  1056   0.682E-03 0.795E-03
DMP:  10    -0.122369267648E+04   -0.20583E-03   -0.13714E-03  1056   0.309E-03 0.336E-03
DMP:  11    -0.122369276759E+04   -0.91109E-04   -0.60839E-04  1056   0.137E-03 0.148E-03
DMP:  12    -0.122369280744E+04   -0.39855E-04   -0.28215E-04  1056   0.664E-04 0.625E-04
DMP:  13    -0.122369282687E+04   -0.19428E-04   -0.15413E-04  1056   0.356E-04 0.358E-04
DMP:  14    -0.122369283843E+04   -0.11561E-04   -0.94331E-05  1056   0.200E-04 0.260E-04
DMP:  15    -0.122369284601E+04   -0.75770E-05   -0.61426E-05  1056   0.120E-04 0.192E-04
DMP:  16    -0.122369285124E+04   -0.52367E-05   -0.43264E-05  1056   0.804E-05 0.144E-04
DMP:  17    -0.122369285507E+04   -0.38315E-05   -0.32016E-05  1056   0.575E-05 0.111E-04
DMP:  18    -0.122369285798E+04   -0.29101E-05   -0.24913E-05  1056   0.441E-05 0.881E-05
DMP:  19    -0.122369286029E+04   -0.23085E-05   -0.20053E-05  1056   0.351E-05 0.718E-05
DMP:  20    -0.122369286218E+04   -0.18830E-05   -0.16466E-05  1056   0.287E-05 0.593E-05
DMP:  21    -0.122369286374E+04   -0.15603E-05   -0.13678E-05  1056   0.238E-05 0.495E-05
DMP:  22    -0.122369286504E+04   -0.13019E-05   -0.11448E-05  1056   0.199E-05 0.414E-05
DMP:  23    -0.122369286613E+04   -0.10915E-05   -0.96604E-06  1056   0.169E-05 0.348E-05
DMP:  24    -0.122369286704E+04   -0.91473E-06   -0.83902E-06  1056   0.152E-05 0.289E-05
   3 F= -.12236929E+04 E0= -.12236929E+04  d E =-.204368E-01  mag=     2.0000
       N       E                     dE             d eps       ncg     rms          ort
SDA:   1    -0.122361511723E+04    0.77749E-01   -0.53668E-01  1056   0.179E+00 0.000E+00
DMP:   2    -0.122365765401E+04   -0.42537E-01   -0.35110E-01  1056   0.708E-01 0.105E+00
DMP:   3    -0.122368293905E+04   -0.25285E-01   -0.13621E-01  1056   0.226E-01 0.515E-01
DMP:   4    -0.122369188875E+04   -0.89497E-02   -0.37857E-02  1056   0.632E-02 0.143E-01
DMP:   5    -0.122369395427E+04   -0.20655E-02   -0.80233E-03  1056   0.216E-02 0.115E-02
DMP:   6    -0.122369424304E+04   -0.28876E-03   -0.29310E-03  1056   0.131E-02-0.750E-03
DMP:   7    -0.122369438801E+04   -0.14498E-03   -0.26109E-03  1056   0.876E-03-0.126E-04
DMP:   8    -0.122369457313E+04   -0.18512E-03   -0.18240E-03  1056   0.448E-03 0.363E-03
DMP:   9    -0.122369470568E+04   -0.13255E-03   -0.94620E-04  1056   0.194E-03 0.276E-03
DMP:  10    -0.122369477249E+04   -0.66812E-04   -0.39829E-04  1056   0.750E-04 0.131E-03
DMP:  11    -0.122369479921E+04   -0.26721E-04   -0.14622E-04  1056   0.286E-04 0.456E-04
DMP:  12    -0.122369480855E+04   -0.93350E-05   -0.54922E-05  1056   0.124E-04 0.134E-04
DMP:  13    -0.122369481210E+04   -0.35574E-05   -0.26205E-05  1056   0.640E-05 0.529E-05
DMP:  14    -0.122369481394E+04   -0.18349E-05   -0.15014E-05  1056   0.347E-05 0.347E-05
DMP:  15    -0.122369481507E+04   -0.11291E-05   -0.92197E-06  1056   0.194E-05 0.257E-05
DMP:  16    -0.122369481579E+04   -0.72643E-06   -0.56646E-06  1056   0.109E-05 0.182E-05
   4 F= -.12236948E+04 E0= -.12236948E+04  d E =-.194875E-02  mag=     2.0000
       N       E                     dE             d eps       ncg     rms          ort
SDA:   1    -0.122368445124E+04    0.10364E-01   -0.72036E-02  1056   0.240E-01 0.000E+00
DMP:   2    -0.122369013863E+04   -0.56874E-02   -0.46388E-02  1056   0.932E-02 0.139E-01
DMP:   3    -0.122369348193E+04   -0.33433E-02   -0.18002E-02  1056   0.299E-02 0.683E-02
DMP:   4    -0.122369467198E+04   -0.11900E-02   -0.51409E-03  1056   0.859E-03 0.193E-02
DMP:   5    -0.122369496101E+04   -0.28903E-03   -0.12134E-03  1056   0.310E-03 0.214E-03
DMP:   6    -0.122369501224E+04   -0.51224E-04   -0.43303E-04  1056   0.172E-03-0.634E-04
DMP:   7    -0.122369503419E+04   -0.21950E-04   -0.33339E-04  1056   0.111E-03 0.118E-05
DMP:   8    -0.122369505747E+04   -0.23287E-04   -0.22899E-04  1056   0.571E-04 0.436E-04
DMP:   9    -0.122369507403E+04   -0.16554E-04   -0.12129E-04  1056   0.254E-04 0.341E-04
DMP:  10    -0.122369508262E+04   -0.85962E-05   -0.54404E-05  1056   0.106E-04 0.172E-04
DMP:  11    -0.122369508638E+04   -0.37552E-05   -0.22411E-05  1056   0.437E-05 0.702E-05
DMP:  12    -0.122369508792E+04   -0.15408E-05   -0.96660E-06  1056   0.200E-05 0.277E-05
DMP:  13    -0.122369508861E+04   -0.69301E-06   -0.49235E-06  1056   0.105E-05 0.134E-05
   5 F= -.12236951E+04 E0= -.12236951E+04  d E =-.222157E-02  mag=     2.0000
       N       E                     dE             d eps       ncg     rms          ort
SDA:   1    -0.122365247797E+04    0.42610E-01   -0.28626E-01  1056   0.954E-01 0.000E+00
DMP:   2    -0.122367514648E+04   -0.22669E-01   -0.18637E-01  1056   0.375E-01 0.557E-01
DMP:   3    -0.122368857725E+04   -0.13431E-01   -0.72382E-02  1056   0.120E-01 0.274E-01
DMP:   4    -0.122369334740E+04   -0.47702E-02   -0.20352E-02  1056   0.339E-02 0.768E-02
DMP:   5    -0.122369447224E+04   -0.11248E-02   -0.45022E-03  1056   0.118E-02 0.716E-03
DMP:   6    -0.122369464608E+04   -0.17384E-03   -0.16242E-03  1056   0.693E-03-0.343E-03
DMP:   7    -0.122369472710E+04   -0.81024E-04   -0.13651E-03  1056   0.456E-03-0.285E-05
DMP:   8    -0.122369482347E+04   -0.96365E-04   -0.95116E-04  1056   0.235E-03 0.186E-03
DMP:   9    -0.122369489257E+04   -0.69098E-04   -0.49893E-04  1056   0.103E-03 0.144E-03
DMP:  10    -0.122369492793E+04   -0.35359E-04   -0.21603E-04  1056   0.411E-04 0.700E-04
DMP:  11    -0.122369494265E+04   -0.14727E-04   -0.84122E-05  1056   0.164E-04 0.264E-04
DMP:  12    -0.122369494824E+04   -0.55899E-05   -0.34131E-05  1056   0.733E-05 0.917E-05
DMP:  13    -0.122369495059E+04   -0.23442E-05   -0.17036E-05  1056   0.384E-05 0.415E-05
DMP:  14    -0.122369495185E+04   -0.12617E-05   -0.10176E-05  1056   0.220E-05 0.271E-05
DMP:  15    -0.122369495266E+04   -0.80722E-06   -0.67039E-06  1056   0.134E-05 0.203E-05
   6 F= -.12236950E+04 E0= -.12236950E+04  d E =-.208561E-02  mag=     2.0000
       N       E                     dE             d eps       ncg     rms          ort
SDA:   1    -0.122367292377E+04    0.22028E-01   -0.14912E-01  1056   0.497E-01 0.000E+00
DMP:   2    -0.122368469504E+04   -0.11771E-01   -0.99492E-02  1056   0.205E-01 0.288E-01
DMP:   3    -0.122369183850E+04   -0.71435E-02   -0.39130E-02  1056   0.666E-02 0.145E-01
DMP:   4    -0.122369436640E+04   -0.25279E-02   -0.10232E-02  1056   0.173E-02 0.381E-02
DMP:   5    -0.122369489452E+04   -0.52812E-03   -0.20330E-03  1056   0.629E-03 0.109E-03
DMP:   6    -0.122369495896E+04   -0.64445E-04   -0.85458E-04  1056   0.394E-03-0.248E-03
DMP:   7    -0.122369500355E+04   -0.44585E-04   -0.85541E-04  1056   0.279E-03 0.141E-04
DMP:   8    -0.122369506591E+04   -0.62366E-04   -0.61208E-04  1056   0.146E-03 0.132E-03
DMP:   9    -0.122369511057E+04   -0.44660E-04   -0.30295E-04  1056   0.597E-04 0.935E-04
DMP:  10    -0.122369513182E+04   -0.21249E-04   -0.11868E-04  1056   0.218E-04 0.401E-04
DMP:  11    -0.122369513966E+04   -0.78371E-05   -0.41242E-05  1056   0.826E-05 0.124E-04
DMP:  12    -0.122369514223E+04   -0.25664E-05   -0.16354E-05  1056   0.394E-05 0.343E-05
DMP:  13    -0.122369514327E+04   -0.10429E-05   -0.85113E-06  1056   0.212E-05 0.163E-05
DMP:  14    -0.122369514387E+04   -0.60201E-06   -0.49749E-06  1056   0.112E-05 0.121E-05
   7 F= -.12236951E+04 E0= -.12236951E+04  d E =-.227683E-02  mag=     2.0000
       N       E                     dE             d eps       ncg     rms          ort
SDA:   1    -0.122361438721E+04    0.80756E-01   -0.59527E-01  1056   0.198E+00 0.000E+00
DMP:   2    -0.122365975865E+04   -0.45371E-01   -0.35025E-01  1056   0.708E-01 0.104E+00
DMP:   3    -0.122368434654E+04   -0.24588E-01   -0.13949E-01  1056   0.257E-01 0.472E-01
DMP:   4    -0.122369343842E+04   -0.90919E-02   -0.40811E-02  1056   0.737E-02 0.141E-01
DMP:   5    -0.122369560282E+04   -0.21644E-02   -0.83115E-03  1056   0.240E-02 0.831E-03
DMP:   6    -0.122369585993E+04   -0.25711E-03   -0.30506E-03  1056   0.148E-02-0.106E-02
DMP:   7    -0.122369599988E+04   -0.13995E-03   -0.28486E-03  1056   0.987E-03-0.852E-04
DMP:   8    -0.122369619709E+04   -0.19721E-03   -0.19271E-03  1056   0.482E-03 0.364E-03
DMP:   9    -0.122369633341E+04   -0.13632E-03   -0.95925E-04  1056   0.202E-03 0.267E-03
DMP:  10    -0.122369639986E+04   -0.66457E-04   -0.40059E-04  1056   0.788E-04 0.124E-03
DMP:  11    -0.122369642614E+04   -0.26279E-04   -0.14384E-04  1056   0.295E-04 0.417E-04
DMP:  12    -0.122369643496E+04   -0.88155E-05   -0.52976E-05  1056   0.129E-04 0.107E-04
DMP:  13    -0.122369643821E+04   -0.32562E-05   -0.24924E-05  1056   0.657E-05 0.394E-05
DMP:  14    -0.122369643985E+04   -0.16387E-05   -0.13307E-05  1056   0.329E-05 0.260E-05
DMP:  15    -0.122369644079E+04   -0.93757E-06   -0.75450E-06  1056   0.170E-05 0.184E-05
   8 F= -.12236964E+04 E0= -.12236964E+04  d E =-.129692E-02  mag=     2.0000
       N       E                     dE             d eps       ncg     rms          ort
SDA:   1    -0.122368156187E+04    0.14878E-01   -0.11043E-01  1056   0.368E-01 0.000E+00
DMP:   2    -0.122368995700E+04   -0.83951E-02   -0.64202E-02  1056   0.129E-01 0.192E-01
DMP:   3    -0.122369446787E+04   -0.45109E-02   -0.25565E-02  1056   0.469E-02 0.867E-02
DMP:   4    -0.122369613880E+04   -0.16709E-02   -0.75951E-03  1056   0.137E-02 0.262E-02
DMP:   5    -0.122369655379E+04   -0.41499E-03   -0.17365E-03  1056   0.474E-03 0.237E-03
DMP:   6    -0.122369661930E+04   -0.65511E-04   -0.61871E-04  1056   0.269E-03-0.142E-03
DMP:   7    -0.122369664854E+04   -0.29236E-04   -0.50135E-04  1056   0.172E-03-0.119E-04
DMP:   8    -0.122369668250E+04   -0.33963E-04   -0.32966E-04  1056   0.839E-04 0.588E-04
DMP:   9    -0.122369670557E+04   -0.23074E-04   -0.16740E-04  1056   0.364E-04 0.440E-04
DMP:  10    -0.122369671715E+04   -0.11576E-04   -0.73469E-05  1056   0.150E-04 0.216E-04
DMP:  11    -0.122369672209E+04   -0.49352E-05   -0.29538E-05  1056   0.612E-05 0.844E-05
DMP:  12    -0.122369672401E+04   -0.19254E-05   -0.11906E-05  1056   0.268E-05 0.293E-05
DMP:  13    -0.122369672480E+04   -0.78607E-06   -0.55826E-06  1056   0.132E-05 0.122E-05
   9 F= -.12236967E+04 E0= -.12236967E+04  d E =-.158092E-02  mag=     2.0000
       N       E                     dE             d eps       ncg     rms          ort
SDA:   1    -0.122363624995E+04    0.60474E-01   -0.43863E-01  1056   0.146E+00 0.000E+00
DMP:   2    -0.122366968141E+04   -0.33431E-01   -0.25775E-01  1056   0.521E-01 0.767E-01
DMP:   3    -0.122368778408E+04   -0.18103E-01   -0.10268E-01  1056   0.189E-01 0.348E-01
DMP:   4    -0.122369447796E+04   -0.66939E-02   -0.30083E-02  1056   0.543E-02 0.104E-01
DMP:   5    -0.122369608553E+04   -0.16076E-02   -0.62971E-03  1056   0.179E-02 0.694E-03
DMP:   6    -0.122369629025E+04   -0.20472E-03   -0.22808E-03  1056   0.108E-02-0.734E-03
DMP:   7    -0.122369639545E+04   -0.10519E-03   -0.20723E-03  1056   0.717E-03-0.601E-04
DMP:   8    -0.122369653853E+04   -0.14308E-03   -0.13995E-03  1056   0.351E-03 0.262E-03
DMP:   9    -0.122369663756E+04   -0.99032E-04   -0.70144E-04  1056   0.148E-03 0.194E-03
DMP:  10    -0.122369668627E+04   -0.48706E-04   -0.29607E-04  1056   0.583E-04 0.914E-04
DMP:  11    -0.122369670585E+04   -0.19584E-04   -0.10914E-04  1056   0.223E-04 0.319E-04
DMP:  12    -0.122369671267E+04   -0.68194E-05   -0.41239E-05  1056   0.979E-05 0.895E-05
DMP:  13    -0.122369671527E+04   -0.25999E-05   -0.19578E-05  1056   0.498E-05 0.350E-05
DMP:  14    -0.122369671659E+04   -0.13203E-05   -0.10697E-05  1056   0.256E-05 0.227E-05
DMP:  15    -0.122369671737E+04   -0.77536E-06   -0.63193E-06  1056   0.139E-05 0.163E-05
  10 F= -.12236967E+04 E0= -.12236967E+04  d E =-.157350E-02  mag=     2.0000
       N       E                     dE             d eps       ncg     rms          ort
SDA:   1    -0.122367050158E+04    0.26215E-01   -0.18808E-01  1056   0.627E-01 0.000E+00
DMP:   2    -0.122368480306E+04   -0.14301E-01   -0.11361E-01  1056   0.234E-01 0.327E-01
DMP:   3    -0.122369280120E+04   -0.79981E-02   -0.46571E-02  1056   0.870E-02 0.155E-01
DMP:   4    -0.122369582377E+04   -0.30226E-02   -0.13110E-02  1056   0.233E-02 0.463E-02
DMP:   5    -0.122369650887E+04   -0.68510E-03   -0.26827E-03  1056   0.808E-03 0.194E-03
DMP:   6    -0.122369659786E+04   -0.88989E-04   -0.10465E-03  1056   0.482E-03-0.302E-03
DMP:   7    -0.122369664878E+04   -0.50918E-04   -0.99357E-04  1056   0.335E-03-0.794E-05
DMP:   8    -0.122369671955E+04   -0.70773E-04   -0.71272E-04  1056   0.175E-03 0.142E-03
DMP:   9    -0.122369677044E+04   -0.50886E-04   -0.34888E-04  1056   0.712E-04 0.102E-03
DMP:  10    -0.122369679475E+04   -0.24314E-04   -0.14370E-04  1056   0.279E-04 0.453E-04
DMP:  11    -0.122369680432E+04   -0.95661E-05   -0.51904E-05  1056   0.105E-04 0.155E-04
DMP:  12    -0.122369680750E+04   -0.31858E-05   -0.18755E-05  1056   0.453E-05 0.391E-05
DMP:  13    -0.122369680862E+04   -0.11170E-05   -0.90322E-06  1056   0.241E-05 0.137E-05
DMP:  14    -0.122369680921E+04   -0.58902E-06   -0.50368E-06  1056   0.123E-05 0.102E-05
  11 F= -.12236968E+04 E0= -.12236968E+04  d E =-.166534E-02  mag=     2.0000
       N       E                     dE             d eps       ncg     rms          ort
SDA:   1    -0.122369025635E+04    0.65523E-02   -0.48141E-02  1056   0.160E-01 0.000E+00
DMP:   2    -0.122369389977E+04   -0.36434E-02   -0.27672E-02  1056   0.558E-02 0.824E-02
DMP:   3    -0.122369583831E+04   -0.19385E-02   -0.10988E-02  1056   0.203E-02 0.370E-02
DMP:   4    -0.122369655350E+04   -0.71519E-03   -0.32597E-03  1056   0.598E-03 0.111E-02
DMP:   5    -0.122369673097E+04   -0.17747E-03   -0.77138E-04  1056   0.214E-03 0.977E-04
DMP:   6    -0.122369676097E+04   -0.29999E-04   -0.28072E-04  1056   0.119E-03-0.570E-04
DMP:   7    -0.122369677446E+04   -0.13492E-04   -0.21887E-04  1056   0.747E-04-0.403E-05
DMP:   8    -0.122369678912E+04   -0.14659E-04   -0.13881E-04  1056   0.355E-04 0.244E-04
DMP:   9    -0.122369679868E+04   -0.95637E-05   -0.69765E-05  1056   0.155E-04 0.175E-04
DMP:  10    -0.122369680343E+04   -0.47432E-05   -0.30638E-05  1056   0.645E-05 0.852E-05
DMP:  11    -0.122369680546E+04   -0.20346E-05   -0.12385E-05  1056   0.264E-05 0.336E-05
DMP:  12    -0.122369680626E+04   -0.80309E-06   -0.49136E-06  1056   0.112E-05 0.116E-05
  12 F= -.12236968E+04 E0= -.12236968E+04  d E =-.166239E-02  mag=     2.0000
       N       E                     dE             d eps       ncg     rms          ort
SDA:   1    -0.122362015453E+04    0.76651E-01   -0.57579E-01  1056   0.192E+00 0.000E+00
DMP:   2    -0.122366373001E+04   -0.43575E-01   -0.32696E-01  1056   0.655E-01 0.986E-01
DMP:   3    -0.122368628317E+04   -0.22553E-01   -0.12719E-01  1056   0.241E-01 0.414E-01
DMP:   4    -0.122369459629E+04   -0.83131E-02   -0.40652E-02  1056   0.780E-02 0.130E-01
DMP:   5    -0.122369681010E+04   -0.22138E-02   -0.83572E-03  1056   0.225E-02 0.121E-02
DMP:   6    -0.122369706001E+04   -0.24990E-03   -0.26788E-03  1056   0.139E-02-0.112E-02
DMP:   7    -0.122369717717E+04   -0.11716E-03   -0.27870E-03  1056   0.979E-03-0.113E-03
DMP:   8    -0.122369737006E+04   -0.19289E-03   -0.18280E-03  1056   0.452E-03 0.356E-03
DMP:   9    -0.122369749704E+04   -0.12697E-03   -0.88560E-04  1056   0.190E-03 0.237E-03
DMP:  10    -0.122369755824E+04   -0.61198E-04   -0.38662E-04  1056   0.788E-04 0.113E-03
DMP:  11    -0.122369758360E+04   -0.25361E-04   -0.13753E-04  1056   0.281E-04 0.403E-04
DMP:  12    -0.122369759175E+04   -0.81569E-05   -0.46594E-05  1056   0.118E-04 0.841E-05
DMP:  13    -0.122369759450E+04   -0.27420E-05   -0.22408E-05  1056   0.632E-05 0.261E-05
DMP:  14    -0.122369759595E+04   -0.14508E-05   -0.12145E-05  1056   0.310E-05 0.214E-05
DMP:  15    -0.122369759679E+04   -0.84270E-06   -0.68192E-06  1056   0.158E-05 0.156E-05
  13 F= -.12236976E+04 E0= -.12236976E+04  d E =-.790526E-03  mag=     2.0000
       N       E                     dE             d eps       ncg     rms          ort
SDA:   1    -0.122369282655E+04    0.47694E-02   -0.36462E-02  1056   0.122E-01 0.000E+00
DMP:   2    -0.122369557027E+04   -0.27437E-02   -0.20369E-02  1056   0.408E-02 0.614E-02
DMP:   3    -0.122369697820E+04   -0.14079E-02   -0.79788E-03  1056   0.151E-02 0.260E-02
DMP:   4    -0.122369750056E+04   -0.52236E-03   -0.25851E-03  1056   0.498E-03 0.824E-03
DMP:   5    -0.122369764471E+04   -0.14415E-03   -0.60458E-04  1056   0.157E-03 0.101E-03
DMP:   6    -0.122369766702E+04   -0.22309E-04   -0.18581E-04  1056   0.850E-04-0.523E-04
DMP:   7    -0.122369767541E+04   -0.83948E-05   -0.16869E-04  1056   0.590E-04-0.631E-05
DMP:   8    -0.122369768695E+04   -0.11534E-04   -0.10817E-04  1056   0.271E-04 0.202E-04
DMP:   9    -0.122369769437E+04   -0.74282E-05   -0.52890E-05  1056   0.117E-04 0.135E-04
DMP:  10    -0.122369769800E+04   -0.36290E-05   -0.24277E-05  1056   0.513E-05 0.672E-05
DMP:  11    -0.122369769964E+04   -0.16351E-05   -0.97736E-06  1056   0.201E-05 0.283E-05
DMP:  12    -0.122369770028E+04   -0.63887E-06   -0.38062E-06  1056   0.854E-06 0.939E-06
  14 F= -.12236977E+04 E0= -.12236977E+04  d E =-.894015E-03  mag=     2.0000
       N       E                     dE             d eps       ncg     rms          ort
SDA:   1    -0.122367844132E+04    0.19258E-01   -0.14453E-01  1056   0.482E-01 0.000E+00
DMP:   2    -0.122368935473E+04   -0.10913E-01   -0.81178E-02  1056   0.162E-01 0.246E-01
DMP:   3    -0.122369495551E+04   -0.56008E-02   -0.31593E-02  1056   0.599E-02 0.103E-01
DMP:   4    -0.122369702482E+04   -0.20693E-02   -0.10247E-02  1056   0.197E-02 0.327E-02
DMP:   5    -0.122369759426E+04   -0.56944E-03   -0.22952E-03  1056   0.596E-03 0.383E-03
DMP:   6    -0.122369767475E+04   -0.80492E-04   -0.72693E-04  1056   0.343E-03-0.228E-03
DMP:   7    -0.122369770747E+04   -0.32714E-04   -0.67521E-04  1056   0.236E-03-0.247E-04
DMP:   8    -0.122369775360E+04   -0.46130E-04   -0.43583E-04  1056   0.109E-03 0.818E-04
DMP:   9    -0.122369778361E+04   -0.30007E-04   -0.21195E-04  1056   0.465E-04 0.548E-04
DMP:  10    -0.122369779819E+04   -0.14589E-04   -0.95484E-05  1056   0.200E-04 0.268E-04
DMP:  11    -0.122369780456E+04   -0.63638E-05   -0.36792E-05  1056   0.756E-05 0.106E-04
DMP:  12    -0.122369780686E+04   -0.22994E-05   -0.13342E-05  1056   0.312E-05 0.300E-05
DMP:  13    -0.122369780769E+04   -0.83343E-06   -0.61289E-06  1056   0.159E-05 0.103E-05
  15 F= -.12236978E+04 E0= -.12236978E+04  d E =-.100143E-02  mag=     2.0000
       N       E                     dE             d eps       ncg     rms          ort
SDA:   1    -0.122368179894E+04    0.16008E-01   -0.10723E-01  1056   0.357E-01 0.000E+00
DMP:   2    -0.122369043031E+04   -0.86314E-02   -0.72135E-02  1056   0.144E-01 0.218E-01
DMP:   3    -0.122369565619E+04   -0.52259E-02   -0.28028E-02  1056   0.458E-02 0.108E-01
DMP:   4    -0.122369754232E+04   -0.18861E-02   -0.84607E-03  1056   0.139E-02 0.323E-02
DMP:   5    -0.122369802305E+04   -0.48073E-03   -0.16171E-03  1056   0.369E-03 0.386E-03
DMP:   6    -0.122369807528E+04   -0.52233E-04   -0.47411E-04  1056   0.242E-03-0.190E-03
DMP:   7    -0.122369809721E+04   -0.21931E-04   -0.53223E-04  1056   0.182E-03-0.111E-04
DMP:   8    -0.122369813544E+04   -0.38226E-04   -0.36862E-04  1056   0.886E-04 0.777E-04
DMP:   9    -0.122369816198E+04   -0.26541E-04   -0.18405E-04  1056   0.375E-04 0.541E-04
DMP:  10    -0.122369817515E+04   -0.13170E-04   -0.82161E-05  1056   0.158E-04 0.263E-04
DMP:  11    -0.122369818084E+04   -0.56918E-05   -0.31622E-05  1056   0.593E-05 0.104E-04
DMP:  12    -0.122369818290E+04   -0.20606E-05   -0.11531E-05  1056   0.245E-05 0.315E-05
DMP:  13    -0.122369818364E+04   -0.73963E-06   -0.51432E-06  1056   0.123E-05 0.109E-05
  16 F= -.12236982E+04 E0= -.12236982E+04  d E =-.375947E-03  mag=     2.0000
       N       E                     dE             d eps       ncg     rms          ort
SDA:   1    -0.122369755869E+04    0.62421E-03   -0.43032E-03  1056   0.143E-02 0.000E+00
DMP:   2    -0.122369790521E+04   -0.34652E-03   -0.28899E-03  1056   0.577E-03 0.876E-03
DMP:   3    -0.122369811474E+04   -0.20954E-03   -0.11203E-03  1056   0.182E-03 0.433E-03
DMP:   4    -0.122369819025E+04   -0.75504E-04   -0.33941E-04  1056   0.558E-04 0.130E-03
DMP:   5    -0.122369820966E+04   -0.19409E-04   -0.67244E-05  1056   0.151E-04 0.165E-04
DMP:   6    -0.122369821196E+04   -0.23017E-05   -0.20106E-05  1056   0.971E-05-0.681E-05
DMP:   7    -0.122369821291E+04   -0.94691E-06   -0.21356E-05  1056   0.723E-05-0.245E-06
DMP:   8    -0.122369821443E+04   -0.15261E-05   -0.14580E-05  1056   0.350E-05 0.309E-05
DMP:   9    -0.122369821548E+04   -0.10476E-05   -0.72096E-06  1056   0.147E-05 0.211E-05
DMP:  10    -0.122369821600E+04   -0.51866E-06   -0.32455E-06  1056   0.631E-06 0.102E-05
  17 F= -.12236982E+04 E0= -.12236982E+04  d E =-.408307E-03  mag=     2.0000
       N       E                     dE             d eps       ncg     rms          ort
SDA:   1    -0.122369568231E+04    0.25332E-02   -0.16812E-02  1056   0.560E-02 0.000E+00
DMP:   2    -0.122369703440E+04   -0.13521E-02   -0.11255E-02  1056   0.225E-02 0.341E-02
DMP:   3    -0.122369784879E+04   -0.81438E-03   -0.43438E-03  1056   0.707E-03 0.168E-02
DMP:   4    -0.122369814076E+04   -0.29197E-03   -0.13119E-03  1056   0.217E-03 0.498E-03
DMP:   5    -0.122369821553E+04   -0.74773E-04   -0.26104E-04  1056   0.598E-04 0.616E-04
DMP:   6    -0.122369822455E+04   -0.90198E-05   -0.80584E-05  1056   0.385E-04-0.264E-04
DMP:   7    -0.122369822845E+04   -0.38912E-05   -0.83736E-05  1056   0.282E-04-0.626E-06
DMP:   8    -0.122369823441E+04   -0.59599E-05   -0.56313E-05  1056   0.135E-04 0.119E-04
DMP:   9    -0.122369823843E+04   -0.40264E-05   -0.27775E-05  1056   0.571E-05 0.804E-05
DMP:  10    -0.122369824042E+04   -0.19849E-05   -0.12511E-05  1056   0.245E-05 0.391E-05
DMP:  11    -0.122369824129E+04   -0.87259E-06   -0.49651E-06  1056   0.949E-06 0.160E-05
  18 F= -.12236982E+04 E0= -.12236982E+04  d E =-.433598E-03  mag=     2.0000
       N       E                     dE             d eps       ncg     rms          ort
SDA:   1    -0.122368255057E+04    0.15690E-01   -0.10562E-01  1056   0.352E-01 0.000E+00
DMP:   2    -0.122369099593E+04   -0.84454E-02   -0.69963E-02  1056   0.140E-01 0.211E-01
DMP:   3    -0.122369602271E+04   -0.50268E-02   -0.27008E-02  1056   0.450E-02 0.102E-01
DMP:   4    -0.122369782797E+04   -0.18053E-02   -0.81792E-03  1056   0.139E-02 0.303E-02
DMP:   5    -0.122369828537E+04   -0.45740E-03   -0.15209E-03  1056   0.364E-03 0.323E-03
DMP:   6    -0.122369833116E+04   -0.45789E-04   -0.48384E-04  1056   0.250E-03-0.201E-03
DMP:   7    -0.122369835472E+04   -0.23565E-04   -0.55192E-04  1056   0.185E-03-0.318E-05
DMP:   8    -0.122369839440E+04   -0.39673E-04   -0.37269E-04  1056   0.885E-04 0.810E-04
DMP:   9    -0.122369842108E+04   -0.26687E-04   -0.18218E-04  1056   0.370E-04 0.536E-04
DMP:  10    -0.122369843406E+04   -0.12972E-04   -0.80188E-05  1056   0.154E-04 0.256E-04
DMP:  11    -0.122369843954E+04   -0.54812E-05   -0.30061E-05  1056   0.573E-05 0.971E-05
DMP:  12    -0.122369844144E+04   -0.19065E-05   -0.11123E-05  1056   0.252E-05 0.269E-05
DMP:  13    -0.122369844213E+04   -0.68579E-06   -0.54981E-06  1056   0.144E-05 0.890E-06
  19 F= -.12236984E+04 E0= -.12236984E+04  d E =-.200839E-03  mag=     2.0000
