 vasp.6.4.2 20Jul23 (build Oct 07 2023 16:32:06) gamma-only                     
  
 executed on             bridges2 date 2024.10.15  16:44:22
 running  768 mpi-ranks, on    6 nodes
 distrk:  each k-point on  384 cores,    2 groups
 distr:  one band on NCORE=   8 cores,   48 groups


--------------------------------------------------------------------------------------------------------


 INCAR:
   SYSTEM = zno
   PREC = Normal
   ISTART = 0
   ICHARG = 2
   ISPIN = 2
   MAGMOM = 76*0.0 1*1.0 2*0.0 1*1.0 11*0.0 1*1.0 78*0.0 1*1.0 2*0.0 1*1.0 11*0.0 1*1.0 4*0.0 1*1.4
   NCORE = 8
   KPAR = 2
   NELECT = 1722
   ENCUT = 400
   NELM = 1000
   NELMIN = 4
   EDIFF = 1E-06
   LREAL = Auto
   EDIFFG = -1E-02
   NSW = 24
   IBRION = 2
   ISIF = 2
   ISYM = 3
   POTIM = 0.5
   ISMEAR = 0
   SIGMA = 0.005
   LWAVE = T
   LCHARG = T
   LVHAR = T
   LVTOT = F
   LELF = F
   LORBIT = 11
   ALGO = Damped
   TIME = 0.3
   LHFCALC = T
   HFSCREEN = 0.2
   AEXX = 0.375
   GGA = PE

 POTCAR:    PAW_PBE Zn 06Sep2000                  
 POTCAR:    PAW_PBE O 08Apr2002                   
 POTCAR:    PAW_PBE Mo_sv 02Feb2006               
 -----------------------------------------------------------------------------
|                                                                             |
|           W    W    AA    RRRRR   N    N  II  N    N   GGGG   !!!           |
|           W    W   A  A   R    R  NN   N  II  NN   N  G    G  !!!           |
|           W    W  A    A  R    R  N N  N  II  N N  N  G       !!!           |
|           W WW W  AAAAAA  RRRRR   N  N N  II  N  N N  G  GGG   !            |
|           WW  WW  A    A  R   R   N   NN  II  N   NN  G    G                |
|           W    W  A    A  R    R  N    N  II  N    N   GGGG   !!!           |
|                                                                             |
|     For optimal performance we recommend to set                             |
|       NCORE = 2 up to number-of-cores-per-socket                            |
|     NCORE specifies how many cores store one orbital (NPAR=cpu/NCORE).      |
|     This setting can greatly improve the performance of VASP for DFT.       |
|     The default, NCORE=1 might be grossly inefficient on modern             |
|     multi-core architectures or massively parallel machines. Do your        |
|     own testing! More info at https://www.vasp.at/wiki/index.php/NCORE      |
|     Unfortunately you need to use the default for GW and RPA                |
|     calculations (for HF NCORE is supported but not extensively tested      |
|     yet).                                                                   |
|                                                                             |
 -----------------------------------------------------------------------------

 POTCAR:    PAW_PBE Zn 06Sep2000                  
   SHA256 =  501fddbd8274dd8e9725d4f3de27861d7f1e553a7e18441bc79fed8f346e7f23 Zn/POTCAR             
   COPYR  = (c) Copyright 06Sep2000 Georg Kresse                                                    
   COPYR  = This file is part of the software VASP. Any use, copying, and all other rights are regul
   COPYR  = If you do not have a valid VASP license, you may not use, copy or distribute this file. 
   VRHFIN =Zn: d10 p2                                                                               
   LEXCH  = PE                                                                                      
   EATOM  =  1748.8345 eV,  128.5357 Ry                                                             
                                                                                                    
   TITEL  = PAW_PBE Zn 06Sep2000                                                                    
   LULTRA =        F    use ultrasoft PP ?                                                          
   IUNSCR =        1    unscreen: 0-lin 1-nonlin 2-no                                               
   RPACOR =    2.000    partial core radius                                                         
   POMASS =   65.390; ZVAL   =   12.000    mass and valenz                                          
   RCORE  =    2.300    outmost cutoff radius                                                       
   RWIGS  =    2.400; RWIGS  =    1.270    wigner-seitz radius (au A)                               
   ENMAX  =  276.723; ENMIN  =  207.542 eV                                                          
   RCLOC  =    1.828    cutoff for local pot                                                        
   LCOR   =        T    correct aug charges                                                         
   LPAW   =        T    paw PP                                                                      
   EAUG   =  575.892                                                                                
   DEXC   =    0.000                                                                                
   RMAX   =    2.347    core radius for proj-oper                                                   
   RAUG   =    1.300    factor for augmentation sphere                                              
   RDEP   =    2.324    radius for radial grids                                                     
   RDEPT  =    1.788    core radius for aug-charge                                                  
                                                                                                    
   Atomic configuration                                                                             
    9 entries                                                                                       
     n  l   j            E        occ.                                                              
     1  0  0.50     -9524.6913   2.0000                                                             
     2  0  0.50     -1158.1882   2.0000                                                             
     2  1  1.50     -1003.8506   6.0000                                                             
     3  0  0.50      -129.2194   2.0000                                                             
     3  1  1.50       -83.3890   6.0000                                                             
     3  2  2.50       -10.1410  10.0000                                                             
     4  0  0.50        -5.9785   2.0000                                                             
     4  1  0.50        -4.0817   0.0000                                                             
     4  3  2.50        -1.3606   0.0000                                                             
   Description                                                                                      
     l       E           TYP  RCUT    TYP  RCUT                                                     
     2    -10.1410010     23  2.300                                                                 
     2    -11.5015836     23  2.300                                                                 
     0     -5.9785163     23  2.300                                                                 
     0      1.1858015     23  2.300                                                                 
     1     -2.7211652     23  2.300                                                                 
     1     13.2444212     23  2.300                                                                 
  local pseudopotential read in
  partial core-charges read in
  partial kinetic energy density read in
  atomic valenz-charges read in
  non local Contribution for L=           2  read in
    real space projection operators read in
  non local Contribution for L=           2  read in
    real space projection operators read in
  non local Contribution for L=           0  read in
    real space projection operators read in
  non local Contribution for L=           0  read in
    real space projection operators read in
  non local Contribution for L=           1  read in
    real space projection operators read in
  non local Contribution for L=           1  read in
    real space projection operators read in
    PAW grid and wavefunctions read in
 
   number of l-projection  operators is LMAX  =           6
   number of lm-projection operators is LMMAX =          18
 
 POTCAR:    PAW_PBE O 08Apr2002                   
   SHA256 =  818f92134a0a090dccd8ba1447fa70422a3b330e708bb4f08108d8ae51209ddf O/POTCAR              
   COPYR  = (c) Copyright 08Apr2002 Georg Kresse                                                    
   COPYR  = This file is part of the software VASP. Any use, copying, and all other rights are regul
   COPYR  = If you do not have a valid VASP license, you may not use, copy or distribute this file. 
   VRHFIN =O: s2p4                                                                                  
   LEXCH  = PE                                                                                      
   EATOM  =   432.3788 eV,   31.7789 Ry                                                             
                                                                                                    
   TITEL  = PAW_PBE O 08Apr2002                                                                     
   LULTRA =        F    use ultrasoft PP ?                                                          
   IUNSCR =        1    unscreen: 0-lin 1-nonlin 2-no                                               
   RPACOR =    1.200    partial core radius                                                         
   POMASS =   16.000; ZVAL   =    6.000    mass and valenz                                          
   RCORE  =    1.520    outmost cutoff radius                                                       
   RWIGS  =    1.550; RWIGS  =    0.820    wigner-seitz radius (au A)                               
   ENMAX  =  400.000; ENMIN  =  300.000 eV                                                          
   ICORE  =        2    local potential                                                             
   LCOR   =        T    correct aug charges                                                         
   LPAW   =        T    paw PP                                                                      
   EAUG   =  605.392                                                                                
   DEXC   =    0.000                                                                                
   RMAX   =    1.553    core radius for proj-oper                                                   
   RAUG   =    1.300    factor for augmentation sphere                                              
   RDEP   =    1.550    radius for radial grids                                                     
   RDEPT  =    1.329    core radius for aug-charge                                                  
                                                                                                    
   Atomic configuration                                                                             
    4 entries                                                                                       
     n  l   j            E        occ.                                                              
     1  0  0.50      -514.6923   2.0000                                                             
     2  0  0.50       -23.9615   2.0000                                                             
     2  1  0.50        -9.0305   4.0000                                                             
     3  2  1.50        -9.5241   0.0000                                                             
   Description                                                                                      
     l       E           TYP  RCUT    TYP  RCUT                                                     
     0    -23.9615318     23  1.200                                                                 
     0     -9.5240782     23  1.200                                                                 
     1     -9.0304911     23  1.520                                                                 
     1      8.1634956     23  1.520                                                                 
     2     -9.5240782      7  1.500                                                                 
  local pseudopotential read in
  partial core-charges read in
  partial kinetic energy density read in
  kinetic energy density of atom read in
  atomic valenz-charges read in
  non local Contribution for L=           0  read in
    real space projection operators read in
  non local Contribution for L=           0  read in
    real space projection operators read in
  non local Contribution for L=           1  read in
    real space projection operators read in
  non local Contribution for L=           1  read in
    real space projection operators read in
    PAW grid and wavefunctions read in
 
   number of l-projection  operators is LMAX  =           4
   number of lm-projection operators is LMMAX =           8
 
 POTCAR:    PAW_PBE Mo_sv 02Feb2006               
   SHA256 =  2731df97e41766cc617548c5a8267718fdef1f509ac6bafa01e745abea2bdfaa Mo_sv/POTCAR          
   COPYR  = (c) Copyright 02Feb2006 Georg Kresse                                                    
   COPYR  = This file is part of the software VASP. Any use, copying, and all other rights are regul
   COPYR  = If you do not have a valid VASP license, you may not use, copy or distribute this file. 
   VRHFIN =Mo: 4p5s4d                                                                               
   LEXCH  = PE                                                                                      
   EATOM  =  1862.2866 eV,  136.8742 Ry                                                             
                                                                                                    
   TITEL  = PAW_PBE Mo_sv 02Feb2006                                                                 
   LULTRA =        F    use ultrasoft PP ?                                                          
   IUNSCR =        1    unscreen: 0-lin 1-nonlin 2-no                                               
   RPACOR =    2.200    partial core radius                                                         
   POMASS =   95.940; ZVAL   =   14.000    mass and valenz                                          
   RCORE  =    2.500    outmost cutoff radius                                                       
   RWIGS  =    2.750; RWIGS  =    1.455    wigner-seitz radius (au A)                               
   ENMAX  =  242.676; ENMIN  =  182.007 eV                                                          
   ICORE  =        3    local potential                                                             
   LCOR   =        T    correct aug charges                                                         
   LPAW   =        T    paw PP                                                                      
   EAUG   =  446.014                                                                                
   DEXC   =    0.000                                                                                
   RMAX   =    2.563    core radius for proj-oper                                                   
   RAUG   =    1.300    factor for augmentation sphere                                              
   RDEP   =    2.641    radius for radial grids                                                     
   RDEPT  =    2.031    core radius for aug-charge                                                  
                                                                                                    
   Atomic configuration                                                                             
   11 entries                                                                                       
     n  l   j            E        occ.                                                              
     1  0  0.50    -19819.0341   2.0000                                                             
     2  0  0.50     -2799.0127   2.0000                                                             
     2  1  1.50     -2502.0276   6.0000                                                             
     3  0  0.50      -476.4449   2.0000                                                             
     3  1  1.50      -379.1496   6.0000                                                             
     3  2  2.50      -220.9367  10.0000                                                             
     4  0  0.50       -64.3378   2.0000                                                             
     5  0  0.50        -4.0862   1.0000                                                             
     4  1  1.50       -38.4773   6.0000                                                             
     4  2  2.50        -3.7535   5.0000                                                             
     4  3  2.50        -1.3606   0.0000                                                             
   Description                                                                                      
     l       E           TYP  RCUT    TYP  RCUT                                                     
     0    -64.3377829     23  2.100                                                                 
     0     -4.0861640     23  2.400                                                                 
     1    -38.4772993     23  2.100                                                                 
     1     13.6058260     23  2.100                                                                 
     2     -3.7534941     23  2.400                                                                 
     2     -5.1140767     23  2.400                                                                 
     3     -4.0817478     23  2.500                                                                 
  local pseudopotential read in
  partial core-charges read in
  partial kinetic energy density read in
  atomic valenz-charges read in
  non local Contribution for L=           0  read in
    real space projection operators read in
  non local Contribution for L=           0  read in
    real space projection operators read in
  non local Contribution for L=           1  read in
    real space projection operators read in
  non local Contribution for L=           1  read in
    real space projection operators read in
  non local Contribution for L=           2  read in
    real space projection operators read in
  non local Contribution for L=           2  read in
    real space projection operators read in
    PAW grid and wavefunctions read in
 
   number of l-projection  operators is LMAX  =           6
   number of lm-projection operators is LMMAX =          18
 
 Optimization of the real space projectors (new method)

 maximal supplied QI-value         = 16.25
 optimisation between [QCUT,QGAM] = [ 10.24, 20.48] = [ 29.35,117.42] Ry 
 Optimized for a Real-space Cutoff    1.38 Angstroem

   l    n(q)    QCUT    max X(q) W(low)/X(q) W(high)/X(q)  e(spline) 
   2      7    10.239    46.356    0.21E-03    0.48E-03    0.10E-06
   2      7    10.239    41.843    0.21E-03    0.50E-03    0.10E-06
   0      8    10.239    48.958    0.37E-03    0.79E-04    0.11E-06
   0      8    10.239    32.776    0.35E-03    0.73E-04    0.10E-06
   1      8    10.239    17.787    0.49E-03    0.70E-03    0.14E-06
   1      8    10.239    14.435    0.42E-03    0.61E-03    0.13E-06
 Optimization of the real space projectors (new method)

 maximal supplied QI-value         = 24.76
 optimisation between [QCUT,QGAM] = [ 10.15, 20.30] = [ 28.85,115.39] Ry 
 Optimized for a Real-space Cutoff    1.38 Angstroem

   l    n(q)    QCUT    max X(q) W(low)/X(q) W(high)/X(q)  e(spline) 
   0      8    10.150    20.381    0.22E-03    0.32E-03    0.29E-06
   0      8    10.150    15.268    0.23E-03    0.35E-03    0.30E-06
   1      8    10.150     5.964    0.46E-03    0.53E-03    0.21E-06
   1      8    10.150     5.382    0.38E-03    0.45E-03    0.19E-06
 Optimization of the real space projectors (new method)

 maximal supplied QI-value         = 15.12
 optimisation between [QCUT,QGAM] = [ 10.13, 20.41] = [ 28.73,116.64] Ry 
 Optimized for a Real-space Cutoff    1.55 Angstroem

   l    n(q)    QCUT    max X(q) W(low)/X(q) W(high)/X(q)  e(spline) 
   0      9    10.129     3.559    0.15E-04    0.17E-04    0.57E-07
   0      9    10.129    20.730    0.48E-04    0.15E-04    0.66E-07
   1      9    10.129     3.279    0.16E-05    0.10E-04    0.27E-07
   1      9    10.129     4.693    0.32E-03    0.57E-04    0.21E-06
   2      9    10.129    67.616    0.48E-03    0.12E-03    0.44E-06
   2      9    10.129    62.420    0.48E-03    0.12E-03    0.45E-06
  PAW_PBE Zn 06Sep2000                  :
 energy of atom  1       EATOM=-1748.8345
 kinetic energy error for atom=    0.0107 (will be added to EATOM!!)
  PAW_PBE O 08Apr2002                   :
 energy of atom  2       EATOM= -432.3788
 kinetic energy error for atom=    0.1156 (will be added to EATOM!!)
  PAW_PBE Mo_sv 02Feb2006               :
 energy of atom  3       EATOM=-1862.2866
 kinetic energy error for atom=    0.0181 (will be added to EATOM!!)
 
 
 POSCAR:   Zn2 O2
  positions in direct lattice
  velocities in cartesian coordinates
 exchange correlation table for  LEXCH =        8
   RHO(1)=    0.500       N(1)  =     2000
   RHO(2)=  100.500       N(2)  =     4000
 


--------------------------------------------------------------------------------------------------------


 ion  position               nearest neighbor table
   1  0.167  0.083  0.166- 143 1.97 152 1.97 155 1.97  96 1.99
   2  0.167  0.083  0.500- 144 1.97 153 1.98 156 1.98  97 1.98
   3  0.167  0.083  0.834- 145 1.98  98 1.98 154 1.98 157 1.98
   4  0.166  0.333  0.166- 143 1.97 146 1.97 158 1.98  99 1.99
   5  0.165  0.333  0.500- 144 1.97 147 1.97 100 1.98 159 2.00
   6  0.166  0.333  0.834- 145 1.98 148 1.98 101 1.98 160 1.98
   7  0.167  0.583  0.166- 146 1.97 161 1.97 149 1.97 102 1.99
   8  0.167  0.583  0.500- 147 1.97 162 1.98 150 1.98 103 1.98
   9  0.167  0.583  0.834- 148 1.98 104 1.98 163 1.98 151 1.98
  10  0.167  0.833  0.166- 164 1.97 149 1.97 152 1.97 105 1.99
  11  0.168  0.834  0.500- 165 1.97 150 1.98 153 1.98 106 1.98
  12  0.167  0.833  0.834- 166 1.98 107 1.98 151 1.98 154 1.98
  13  0.417  0.083  0.166- 164 1.97 167 1.97 155 1.97 108 1.99
  14  0.416  0.082  0.500- 165 1.97 168 1.98 156 1.98 109 1.98
  15  0.417  0.083  0.834- 166 1.98 110 1.98 169 1.98 157 1.98
  16  0.415  0.332  0.166- 155 1.96 158 1.96 170 1.98 111 2.01
  17  0.407  0.327  0.502- 156 1.93 159 1.95 112 1.96 171 2.08
  18  0.417  0.334  0.834- 157 1.97 160 1.97 113 1.98 172 2.00
  19  0.415  0.583  0.166- 161 1.96 158 1.96 173 1.98 114 2.01
  20  0.407  0.580  0.502- 162 1.93 159 1.95 115 1.96 174 2.08
  21  0.417  0.584  0.834- 163 1.97 160 1.97 116 1.98 175 2.00
  22  0.417  0.833  0.166- 164 1.97 161 1.97 176 1.97 117 1.99
  23  0.416  0.834  0.500- 165 1.97 162 1.98 177 1.98 118 1.98
  24  0.417  0.833  0.834- 166 1.98 119 1.98 163 1.98 178 1.98
  25  0.667  0.083  0.166- 179 1.97 176 1.97 167 1.97 120 1.99
  26  0.667  0.083  0.500- 180 1.97 177 1.98 168 1.98 121 1.98
  27  0.667  0.083  0.834- 181 1.98 122 1.98 178 1.98 169 1.98
  28  0.667  0.332  0.166- 167 1.96 182 1.96 170 1.98 123 2.01
  29  0.670  0.327  0.502- 168 1.93 183 1.95 124 1.96 171 2.08
  30  0.666  0.334  0.834- 169 1.97 184 1.97 125 1.98 172 2.00
  31  0.667  0.583  0.166- 170 1.96 185 1.96 173 1.96 126 2.06
  32  0.667  0.583  0.835- 127 1.97 172 1.98 187 1.98 175 1.98
  33  0.667  0.835  0.166- 176 1.96 188 1.96 173 1.98 128 2.01
  34  0.670  0.843  0.502- 177 1.93 189 1.95 129 1.96 174 2.08
  35  0.666  0.833  0.834- 178 1.97 190 1.97 130 1.98 175 2.00
  36  0.917  0.084  0.166- 143 1.97 179 1.97 188 1.98 131 1.99
  37  0.917  0.085  0.500- 144 1.97 180 1.97 132 1.98 189 2.00
  38  0.917  0.084  0.834- 145 1.98 181 1.98 133 1.98 190 1.98
  39  0.917  0.333  0.166- 146 1.97 179 1.97 182 1.98 134 1.99
  40  0.917  0.333  0.500- 147 1.97 180 1.97 135 1.98 183 2.00
  41  0.917  0.333  0.834- 148 1.98 181 1.98 136 1.98 184 1.98
  42  0.918  0.583  0.166- 149 1.96 182 1.96 185 1.98 137 2.01
  43  0.923  0.580  0.502- 150 1.93 183 1.95 138 1.96 186 2.08
  44  0.916  0.584  0.834- 151 1.97 184 1.97 139 1.98 187 2.00
  45  0.918  0.835  0.166- 152 1.96 188 1.96 185 1.98 140 2.01
  46  0.923  0.843  0.502- 153 1.93 189 1.95 141 1.96 186 2.08
  47  0.916  0.833  0.834- 154 1.97 190 1.97 142 1.98 187 2.00
  48  0.083  0.167  1.000-  98 1.97 133 1.97 101 1.97 143 1.99
  49  0.083  0.167  0.332- 131 1.97  99 1.97  96 1.97 144 1.99
  50  0.083  0.167  0.667- 145 1.98 132 1.98 100 1.98  97 1.98
  51  0.083  0.417  1.000- 104 1.97 136 1.97 101 1.97 146 1.99
  52  0.083  0.417  0.332- 134 1.97  99 1.97 102 1.97 147 1.99
  53  0.083  0.417  0.667- 148 1.98 135 1.98 100 1.98 103 1.98
  54  0.083  0.667  1.000- 107 1.97 104 1.97 139 1.98 149 1.99
  55  0.085  0.667  0.332- 102 1.96 105 1.96 137 1.98 150 1.99
  56  0.084  0.667  0.668- 151 1.97 106 1.97 103 1.98 138 2.01
  57  0.083  0.917  1.000- 107 1.97  98 1.97 142 1.98 152 1.99
  58  0.085  0.918  0.332-  96 1.96 105 1.96 140 1.98 153 1.99
  59  0.084  0.917  0.668- 154 1.97 106 1.97  97 1.98 141 2.01
  60  0.333  0.167  1.000- 110 1.97  98 1.97 113 1.98 155 1.99
  61  0.332  0.165  0.332-  96 1.96 108 1.96 111 1.98 156 1.99
  62  0.333  0.166  0.668- 157 1.97 109 1.97  97 1.98 112 2.01
  63  0.333  0.417  1.000- 101 1.97 116 1.98 113 1.98 158 1.99
  64  0.332  0.416  0.332-  99 1.95 114 1.97 111 1.97 159 2.00
  65  0.332  0.416  0.669- 160 1.96 100 1.97 115 1.99 112 1.99
  66  0.333  0.667  1.000- 119 1.97 104 1.97 116 1.98 161 1.99
  67  0.332  0.667  0.332- 102 1.96 117 1.96 114 1.98 162 1.99
  68  0.333  0.667  0.668- 163 1.97 118 1.97 103 1.98 115 2.01
  69  0.333  0.917  1.000- 110 1.97 107 1.97 119 1.97 164 1.99
  70  0.333  0.917  0.332- 108 1.97 105 1.97 117 1.97 165 1.99
  71  0.333  0.917  0.667- 166 1.98 109 1.98 106 1.98 118 1.98
  72  0.583  0.167  1.000- 110 1.97 122 1.97 125 1.98 167 1.99
  73  0.583  0.165  0.332- 120 1.96 108 1.96 123 1.98 168 1.99
  74  0.583  0.166  0.668- 169 1.97 109 1.97 121 1.98 124 2.01
  75  0.583  0.417  0.001- 113 1.97 125 1.97 127 1.98 170 2.00
  76  0.582  0.414  0.327- 111 1.93 123 1.93 126 1.96 171 2.15
  77  0.584  0.417  0.665- 172 1.95 112 1.96 124 1.96 191 3.22
  78  0.583  0.667  0.001- 130 1.97 116 1.97 127 1.98 173 2.00
  79  0.582  0.668  0.327- 128 1.93 114 1.93 126 1.96 174 2.15
  80  0.584  0.666  0.665- 175 1.95 129 1.96 115 1.96 191 3.22
  81  0.583  0.917  1.000- 119 1.97 122 1.97 130 1.98 176 1.99
  82  0.583  0.918  0.332- 120 1.96 117 1.96 128 1.98 177 1.99
  83  0.583  0.917  0.668- 178 1.97 118 1.97 121 1.98 129 2.01
  84  0.833  0.167  1.000- 122 1.97 136 1.97 133 1.97 179 1.99
  85  0.833  0.167  0.332- 134 1.97 131 1.97 120 1.97 180 1.99
  86  0.833  0.167  0.667- 181 1.98 135 1.98 132 1.98 121 1.98
  87  0.833  0.417  1.000- 136 1.97 139 1.98 125 1.98 182 1.99
  88  0.834  0.416  0.332- 134 1.95 137 1.97 123 1.97 183 2.00
  89  0.834  0.416  0.669- 184 1.96 135 1.97 138 1.99 124 1.99
  90  0.833  0.667  0.001- 142 1.97 139 1.97 127 1.98 185 2.00
  91  0.836  0.668  0.327- 140 1.93 137 1.93 126 1.96 186 2.15
  92  0.833  0.666  0.665- 187 1.95 141 1.96 138 1.96 191 3.22
  93  0.833  0.917  1.000- 133 1.97 130 1.98 142 1.98 188 1.99
  94  0.834  0.918  0.332- 131 1.95 128 1.97 140 1.97 189 2.00
  95  0.834  0.918  0.669- 190 1.96 132 1.97 129 1.99 141 1.99
  96  0.167  0.083  0.293-  58 1.96  61 1.96  49 1.97   1 1.99
  97  0.167  0.083  0.627-  59 1.98  62 1.98   2 1.98  50 1.98
  98  0.167  0.083  0.960-  57 1.97  60 1.97  48 1.97   3 1.98
  99  0.167  0.333  0.293-  64 1.95  49 1.97  52 1.97   4 1.99
 100  0.167  0.334  0.626-  65 1.97   5 1.98  50 1.98  53 1.98
 101  0.167  0.333  0.961-  63 1.97  48 1.97  51 1.97   6 1.98
 102  0.167  0.583  0.293-  67 1.96  55 1.96  52 1.97   7 1.99
 103  0.167  0.584  0.627-  68 1.98  56 1.98   8 1.98  53 1.98
 104  0.167  0.583  0.960-  66 1.97  54 1.97  51 1.97   9 1.98
 105  0.167  0.833  0.293-  55 1.96  58 1.96  70 1.97  10 1.99
 106  0.166  0.833  0.627-  56 1.97  59 1.97  11 1.98  71 1.98
 107  0.167  0.833  0.961-  54 1.97  57 1.97  69 1.97  12 1.98
 108  0.417  0.083  0.293-  73 1.96  61 1.96  70 1.97  13 1.99
 109  0.417  0.084  0.627-  74 1.97  62 1.97  14 1.98  71 1.98
 110  0.417  0.083  0.961-  72 1.97  60 1.97  69 1.97  15 1.98
 111  0.416  0.333  0.295-  76 1.93  64 1.97  61 1.98  16 2.01
 112  0.418  0.335  0.627-  77 1.96  17 1.96  65 1.99  62 2.01
 113  0.418  0.334  0.960-  75 1.97  63 1.98  60 1.98  18 1.98
 114  0.416  0.583  0.295-  79 1.93  64 1.97  67 1.98  19 2.01
 115  0.418  0.583  0.627-  80 1.96  20 1.96  65 1.99  68 2.01
 116  0.418  0.584  0.960-  78 1.97  63 1.98  66 1.98  21 1.98
 117  0.417  0.833  0.293-  67 1.96  82 1.96  70 1.97  22 1.99
 118  0.417  0.833  0.627-  68 1.97  83 1.97  23 1.98  71 1.98
 119  0.417  0.833  0.961-  66 1.97  81 1.97  69 1.97  24 1.98
 120  0.667  0.083  0.293-  82 1.96  73 1.96  85 1.97  25 1.99
 121  0.666  0.083  0.627-  83 1.98  74 1.98  26 1.98  86 1.98
 122  0.667  0.083  0.960-  81 1.97  72 1.97  84 1.97  27 1.98
 123  0.667  0.333  0.295-  76 1.93  88 1.97  73 1.98  28 2.01
 124  0.667  0.335  0.627-  77 1.96  29 1.96  89 1.99  74 2.01
 125  0.666  0.334  0.960-  75 1.97  87 1.98  72 1.98  30 1.98
 126  0.667  0.583  0.298-  76 1.96  91 1.96  79 1.96  31 2.06
 127  0.667  0.583  0.961-  32 1.97  75 1.98  90 1.98  78 1.98
 128  0.667  0.834  0.295-  79 1.93  94 1.97  82 1.98  33 2.01
 129  0.667  0.832  0.627-  80 1.96  34 1.96  95 1.99  83 2.01
 130  0.666  0.832  0.960-  78 1.97  93 1.98  81 1.98  35 1.98
 131  0.917  0.083  0.293-  94 1.95  49 1.97  85 1.97  36 1.99
 132  0.916  0.083  0.626-  95 1.97  37 1.98  50 1.98  86 1.98
 133  0.917  0.083  0.961-  93 1.97  48 1.97  84 1.97  38 1.98
 134  0.917  0.333  0.293-  88 1.95  52 1.97  85 1.97  39 1.99
 135  0.916  0.334  0.626-  89 1.97  40 1.98  53 1.98  86 1.98
 136  0.917  0.333  0.961-  87 1.97  51 1.97  84 1.97  41 1.98
 137  0.917  0.583  0.295-  91 1.93  88 1.97  55 1.98  42 2.01
 138  0.915  0.583  0.627-  92 1.96  43 1.96  89 1.99  56 2.01
 139  0.916  0.584  0.960-  90 1.97  87 1.98  54 1.98  44 1.98
 140  0.917  0.834  0.295-  91 1.93  94 1.97  58 1.98  45 2.01
 141  0.915  0.832  0.627-  92 1.96  46 1.96  95 1.99  59 2.01
 142  0.916  0.832  0.960-  90 1.97  93 1.98  57 1.98  47 1.98
 143  0.083  0.167  0.127-  36 1.97   4 1.97   1 1.97  48 1.99
 144  0.084  0.166  0.460-  37 1.97   5 1.97   2 1.97  49 1.99
 145  0.083  0.167  0.793-   3 1.98  50 1.98  38 1.98   6 1.98
 146  0.083  0.417  0.127-  39 1.97   4 1.97   7 1.97  51 1.99
 147  0.084  0.417  0.460-  40 1.97   5 1.97   8 1.97  52 1.99
 148  0.083  0.417  0.793-   9 1.98  53 1.98  41 1.98   6 1.98
 149  0.083  0.667  0.127-  42 1.96   7 1.97  10 1.97  54 1.99
 150  0.084  0.667  0.460-  43 1.93  11 1.98   8 1.98  55 1.99
 151  0.083  0.667  0.794-  56 1.97  44 1.97  12 1.98   9 1.98
 152  0.083  0.917  0.127-  45 1.96   1 1.97  10 1.97  57 1.99
 153  0.084  0.916  0.460-  46 1.93  11 1.98   2 1.98  58 1.99
 154  0.083  0.916  0.794-  59 1.97  47 1.97  12 1.98   3 1.98
 155  0.333  0.167  0.127-  16 1.96   1 1.97  13 1.97  60 1.99
 156  0.334  0.166  0.460-  17 1.93  14 1.98   2 1.98  61 1.99
 157  0.334  0.167  0.794-  62 1.97  18 1.97  15 1.98   3 1.98
 158  0.333  0.417  0.127-  19 1.96  16 1.96   4 1.98  63 1.99
 159  0.334  0.417  0.460-  20 1.95  17 1.95  64 2.00   5 2.00
 160  0.334  0.417  0.794-  65 1.96  21 1.97  18 1.97   6 1.98
 161  0.333  0.667  0.127-  19 1.96   7 1.97  22 1.97  66 1.99
 162  0.334  0.667  0.460-  20 1.93  23 1.98   8 1.98  67 1.99
 163  0.334  0.667  0.794-  68 1.97  21 1.97  24 1.98   9 1.98
 164  0.333  0.917  0.127-  13 1.97  10 1.97  22 1.97  69 1.99
 165  0.333  0.917  0.460-  14 1.97  11 1.97  23 1.97  70 1.99
 166  0.333  0.917  0.793-  15 1.98  12 1.98  24 1.98  71 1.98
 167  0.583  0.167  0.127-  28 1.96  25 1.97  13 1.97  72 1.99
 168  0.583  0.166  0.460-  29 1.93  14 1.98  26 1.98  73 1.99
 169  0.583  0.167  0.794-  74 1.97  30 1.97  15 1.98  27 1.98
 170  0.583  0.417  0.129-  31 1.96  16 1.98  28 1.98  75 2.00
 171  0.585  0.420  0.464- 191 1.91  17 2.08  29 2.08  76 2.15
 172  0.584  0.419  0.790-  77 1.95  32 1.98  18 2.00  30 2.00
 173  0.583  0.667  0.129-  31 1.96  33 1.98  19 1.98  78 2.00
 174  0.585  0.665  0.464- 191 1.91  34 2.08  20 2.08  79 2.15
 175  0.584  0.666  0.790-  80 1.95  32 1.98  35 2.00  21 2.00
 176  0.583  0.917  0.127-  33 1.96  25 1.97  22 1.97  81 1.99
 177  0.583  0.916  0.460-  34 1.93  23 1.98  26 1.98  82 1.99
 178  0.583  0.916  0.794-  83 1.97  35 1.97  24 1.98  27 1.98
 179  0.833  0.167  0.127-  39 1.97  36 1.97  25 1.97  84 1.99
 180  0.833  0.166  0.460-  40 1.97  37 1.97  26 1.97  85 1.99
 181  0.833  0.167  0.793-  27 1.98  86 1.98  41 1.98  38 1.98
 182  0.833  0.417  0.127-  42 1.96  28 1.96  39 1.98  87 1.99
 183  0.833  0.417  0.460-  43 1.95  29 1.95  88 2.00  40 2.00
 184  0.833  0.417  0.794-  89 1.96  44 1.97  30 1.97  41 1.98
 185  0.833  0.667  0.129-  31 1.96  45 1.98  42 1.98  90 2.00
 186  0.830  0.665  0.464- 191 1.91  46 2.08  43 2.08  91 2.15
 187  0.831  0.666  0.790-  92 1.95  32 1.98  47 2.00  44 2.00
 188  0.833  0.917  0.127-  33 1.96  45 1.96  36 1.98  93 1.99
 189  0.833  0.916  0.460-  34 1.95  46 1.95  94 2.00  37 2.00
 190  0.833  0.916  0.794-  95 1.96  35 1.97  47 1.97  38 1.98
 191  0.667  0.583  0.497- 171 1.91 186 1.91 174 1.91  77 3.22  92 3.22  80 3.22
 
  LATTYP: Found a hexagonal cell.
 ALAT       =    12.9943542480
 C/A-ratio  =     1.2014478222
  
  Lattice vectors:
  
 A1 = (  12.9943542480,   0.0000000000,   0.0000000000)
 A2 = (  -6.4971766472,  11.2534400587,   0.0000000000)
 A3 = (   0.0000000000,   0.0000000000,  15.6120386124)


Analysis of symmetry for initial positions (statically):
=====================================================================
 Subroutine PRICEL returns:
 Original cell was already a primitive cell.
 

 Routine SETGRP: Setting up the symmetry group for a 
 hexagonal supercell.


 Subroutine GETGRP returns: Found  6 space group operations
 (whereof  1 operations were pure point group operations)
 out of a pool of 24 trial point group operations.


The static configuration has the point symmetry C_1 .
 The point group associated with its full space group is C_3v.


Analysis of symmetry for dynamics (positions and initial velocities):
=====================================================================
 Subroutine PRICEL returns:
 Original cell was already a primitive cell.
 

 Routine SETGRP: Setting up the symmetry group for a 
 hexagonal supercell.


 Subroutine GETGRP returns: Found  6 space group operations
 (whereof  1 operations were pure point group operations)
 out of a pool of 24 trial point group operations.


The dynamic configuration has the point symmetry C_1 .
 The point group associated with its full space group is C_3v.


Analysis of structural, dynamic, and magnetic symmetry:
=====================================================================
 Subroutine PRICEL returns:
 Original cell was already a primitive cell.
 

 Routine SETGRP: Setting up the symmetry group for a 
 hexagonal supercell.


 Subroutine GETGRP returns: Found  6 space group operations
 (whereof  1 operations were pure point group operations)
 out of a pool of 24 trial point group operations.


The overall configuration has the point symmetry C_1 .
 The point group associated with its full space group is C_3v.


 Subroutine INISYM returns: Found  6 space group operations
 (whereof  1 operations are pure point group operations),
 and found     1 'primitive' translations


----------------------------------------------------------------------------------------

                                     Primitive cell                                     

  volume of cell :    2282.9669

  direct lattice vectors                    reciprocal lattice vectors
    12.994354248  0.000000000  0.000000000     0.076956498  0.044430855  0.000000000
    -6.497176647 11.253440059  0.000000000     0.000000000  0.088861716  0.000000000
     0.000000000  0.000000000 15.612038612     0.000000000  0.000000000  0.064053134

  length of vectors
    12.994354248 12.994353294 15.612038612     0.088861710  0.088861716  0.064053134

  position of ions in fractional coordinates (direct lattice)
     0.166588116  0.083411892  0.165552555
     0.166700916  0.083299092  0.499745154
     0.166522823  0.083477185  0.833677399
     0.166096899  0.333048457  0.165709552
     0.165106299  0.332553156  0.499565908
     0.166297998  0.333149006  0.833728931
     0.166588116  0.583176201  0.165552555
     0.166700916  0.583401802  0.499745154
     0.166522823  0.583045614  0.833677399
     0.166961880  0.833480917  0.165550011
     0.167856694  0.833928324  0.500137074
     0.166933332  0.833466643  0.833804142
     0.416519083  0.083038128  0.165550011
     0.416071676  0.082143314  0.500137074
     0.416533357  0.083066676  0.833804142
     0.415258549  0.332463735  0.165791502
     0.407217465  0.327152136  0.501730522
     0.417328339  0.333705826  0.833516181
     0.415258549  0.582794783  0.165791502
     0.407217465  0.580065298  0.501730522
     0.417328339  0.583622482  0.833516181
     0.416519083  0.833480917  0.165550011
     0.416071676  0.833928324  0.500137074
     0.416533357  0.833466643  0.833804142
     0.666823799  0.083411892  0.165552555
     0.666598198  0.083299092  0.499745154
     0.666954386  0.083477185  0.833677399
     0.667205217  0.332463735  0.165791502
     0.669934702  0.327152136  0.501730522
     0.666377518  0.333705826  0.833516181
     0.666666687  0.583333313  0.166338179
     0.666666687  0.583333313  0.834919713
     0.667205217  0.834741451  0.165791502
     0.669934702  0.842782535  0.501730522
     0.666377518  0.832671661  0.833516181
     0.916951573  0.083903109  0.165709552
     0.917446874  0.084893709  0.499565908
     0.916851024  0.083702010  0.833728931
     0.916951573  0.333048457  0.165709552
     0.917446874  0.332553156  0.499565908
     0.916851024  0.333149006  0.833728931
     0.917536295  0.582794783  0.165791502
     0.922847894  0.580065298  0.501730522
     0.916294204  0.583622482  0.833516181
     0.917536295  0.834741451  0.165791502
     0.922847894  0.842782535  0.501730522
     0.916294204  0.832671661  0.833516181
     0.083312363  0.166687645  0.999795862
     0.083298892  0.166701116  0.332255525
     0.083252913  0.166747095  0.666797638
     0.083312363  0.416624741  0.999795862
     0.083298892  0.416597800  0.332255525
     0.083252913  0.416505840  0.666797638
     0.083310763  0.666655924  0.999670414
     0.084970789  0.667396692  0.331856487
     0.084276504  0.667181115  0.667764381
     0.083310763  0.916654876  0.999670414
     0.084970789  0.917574135  0.331856487
     0.084276504  0.917095427  0.667764381
     0.333345154  0.166689245  0.999670414
     0.332425895  0.165029219  0.331856487
     0.332904603  0.165723504  0.667764381
     0.333342035  0.416671033  0.999672354
     0.331736620  0.415868325  0.332095036
     0.332002003  0.416001017  0.668514211
     0.333345154  0.666655924  0.999670414
     0.332425895  0.667396692  0.331856487
     0.332904603  0.667181115  0.667764381
     0.333333343  0.916666687  0.999701438
     0.333333343  0.916666687  0.332264053
     0.333333343  0.916666687  0.666872955
     0.583344076  0.166689245  0.999670414
     0.582603308  0.165029219  0.331856487
     0.582818885  0.165723504  0.667764381
     0.583252601  0.416505264  0.001199470
     0.581788813  0.413577687  0.326895087
     0.583576097  0.417152256  0.665117146
     0.583252601  0.666747399  0.001199470
     0.581788813  0.668211187  0.326895087
     0.583576097  0.666423903  0.665117146
     0.583344076  0.916654876  0.999670414
     0.582603308  0.917574135  0.331856487
     0.582818885  0.917095427  0.667764381
     0.833375259  0.166687645  0.999795862
     0.833402200  0.166701116  0.332255525
     0.833494160  0.166747095  0.666797638
     0.833328967  0.416671033  0.999672354
     0.834131675  0.415868325  0.332095036
     0.833998983  0.416001017  0.668514211
     0.833494736  0.666747399  0.001199470
     0.836422313  0.668211187  0.326895087
     0.832847744  0.666423903  0.665117146
     0.833328967  0.916657995  0.999672354
     0.834131675  0.918263410  0.332095036
     0.833998983  0.917998027  0.668514211
     0.166534613  0.083465395  0.293273458
     0.166769471  0.083230537  0.626588582
     0.166666052  0.083333956  0.960469259
     0.166506083  0.333253048  0.293453857
     0.167151106  0.333575560  0.626339186
     0.166871456  0.333435735  0.960503107
     0.166534613  0.583069195  0.293273458
     0.166769471  0.583538912  0.626588582
     0.166666052  0.583332072  0.960469259
     0.166702046  0.833351000  0.293244178
     0.166186676  0.833093315  0.626825323
     0.166554511  0.833277232  0.960519083
     0.416649000  0.083297962  0.293244178
     0.416906685  0.083813332  0.626825323
     0.416722768  0.083445497  0.960519083
     0.416306814  0.333168764  0.294546910
     0.417907973  0.334789171  0.626950587
     0.417592539  0.333912720  0.960347786
     0.416306814  0.583138019  0.294546910
     0.417907973  0.583118771  0.626950587
     0.417592539  0.583679789  0.960347786
     0.416649000  0.833351000  0.293244178
     0.416906685  0.833093315  0.626825323
     0.416722768  0.833277232  0.960519083
     0.666930805  0.083465395  0.293273458
     0.666461088  0.083230537  0.626588582
     0.666667928  0.083333956  0.960469259
     0.666861981  0.333168764  0.294546910
     0.666881229  0.334789171  0.626950587
     0.666320211  0.333912720  0.960347786
     0.666666687  0.583333313  0.298110392
     0.666666687  0.583333313  0.961128488
     0.666861981  0.833693186  0.294546910
     0.666881229  0.832092027  0.626950587
     0.666320211  0.832407461  0.960347786
     0.916746982  0.083493925  0.293453857
     0.916424470  0.082848902  0.626339186
     0.916564295  0.083128552  0.960503107
     0.916746982  0.333253048  0.293453857
     0.916424470  0.333575560  0.626339186
     0.916564295  0.333435735  0.960503107
     0.916831266  0.583138019  0.294546910
     0.915210859  0.583118771  0.626950587
     0.916087310  0.583679789  0.960347786
     0.916831266  0.833693186  0.294546910
     0.915210859  0.832092027  0.626950587
     0.916087310  0.832407461  0.960347786
     0.083345202  0.166654806  0.127037088
     0.083612961  0.166387047  0.459887824
     0.083329463  0.166670545  0.793365090
     0.083345202  0.416690419  0.127037088
     0.083612961  0.417225937  0.459887824
     0.083329463  0.416658942  0.793365090
     0.083230022  0.666622138  0.127094238
     0.083818707  0.667427875  0.459585419
     0.082818043  0.666528691  0.793870688
     0.083230022  0.916607922  0.127094238
     0.083818707  0.916390870  0.459585419
     0.082818043  0.916289390  0.793870688
     0.333392108  0.166769986  0.127094238
     0.333609160  0.166181301  0.459585419
     0.333710640  0.167181965  0.793870688
     0.333354830  0.416677430  0.127283310
     0.334198372  0.417099202  0.460006310
     0.333732080  0.416866056  0.794256341
     0.333392108  0.666622138  0.127094238
     0.333609160  0.667427875  0.459585419
     0.333710640  0.666528691  0.793870688
     0.333333343  0.916666687  0.126907414
     0.333333343  0.916666687  0.459746218
     0.333333343  0.916666687  0.793483689
     0.583377862  0.166769986  0.127094238
     0.582572125  0.166181301  0.459585419
     0.583471309  0.167181965  0.793870688
     0.583426270  0.416852601  0.129236800
     0.584788766  0.419577593  0.464372462
     0.584387584  0.418775229  0.790332292
     0.583426270  0.666573730  0.129236800
     0.584788766  0.665211234  0.464372462
     0.584387584  0.665612416  0.790332292
     0.583377862  0.916607922  0.127094238
     0.582572125  0.916390870  0.459585419
     0.583471309  0.916289390  0.793870688
     0.833309581  0.166654806  0.127037088
     0.832774063  0.166387047  0.459887824
     0.833341058  0.166670545  0.793365090
     0.833322570  0.416677430  0.127283310
     0.832900798  0.417099202  0.460006310
     0.833133944  0.416866056  0.794256341
     0.833147399  0.666573730  0.129236800
     0.830422407  0.665211234  0.464372462
     0.831224771  0.665612416  0.790332292
     0.833322570  0.916645200  0.127283310
     0.832900798  0.915801658  0.460006310
     0.833133944  0.916267950  0.794256341
     0.666666687  0.583333313  0.497104625

  ion indices of the primitive-cell ions
   primitive index   ion index
                 1           1
                 2           2
                 3           3
                 4           4
                 5           5
                 6           6
                 7           7
                 8           8
                 9           9
                10          10
                11          11
                12          12
                13          13
                14          14
                15          15
                16          16
                17          17
                18          18
                19          19
                20          20
                21          21
                22          22
                23          23
                24          24
                25          25
                26          26
                27          27
                28          28
                29          29
                30          30
                31          31
                32          32
                33          33
                34          34
                35          35
                36          36
                37          37
                38          38
                39          39
                40          40
                41          41
                42          42
                43          43
                44          44
                45          45
                46          46
                47          47
                48          48
                49          49
                50          50
                51          51
                52          52
                53          53
                54          54
                55          55
                56          56
                57          57
                58          58
                59          59
                60          60
                61          61
                62          62
                63          63
                64          64
                65          65
                66          66
                67          67
                68          68
                69          69
                70          70
                71          71
                72          72
                73          73
                74          74
                75          75
                76          76
                77          77
                78          78
                79          79
                80          80
                81          81
                82          82
                83          83
                84          84
                85          85
                86          86
                87          87
                88          88
                89          89
                90          90
                91          91
                92          92
                93          93
                94          94
                95          95
                96          96
                97          97
                98          98
                99          99
               100         100
               101         101
               102         102
               103         103
               104         104
               105         105
               106         106
               107         107
               108         108
               109         109
               110         110
               111         111
               112         112
               113         113
               114         114
               115         115
               116         116
               117         117
               118         118
               119         119
               120         120
               121         121
               122         122
               123         123
               124         124
               125         125
               126         126
               127         127
               128         128
               129         129
               130         130
               131         131
               132         132
               133         133
               134         134
               135         135
               136         136
               137         137
               138         138
               139         139
               140         140
               141         141
               142         142
               143         143
               144         144
               145         145
               146         146
               147         147
               148         148
               149         149
               150         150
               151         151
               152         152
               153         153
               154         154
               155         155
               156         156
               157         157
               158         158
               159         159
               160         160
               161         161
               162         162
               163         163
               164         164
               165         165
               166         166
               167         167
               168         168
               169         169
               170         170
               171         171
               172         172
               173         173
               174         174
               175         175
               176         176
               177         177
               178         178
               179         179
               180         180
               181         181
               182         182
               183         183
               184         184
               185         185
               186         186
               187         187
               188         188
               189         189
               190         190
               191         191

----------------------------------------------------------------------------------------

 
 
 KPOINTS: pymatgen with grid density = 659 / numbe

Automatic generation of k-mesh.
 Grid dimensions read from file:
 generate k-points for:    1    1    1

 Generating k-lattice:

  Cartesian coordinates                     Fractional coordinates (reciprocal lattice)
     0.076956498  0.044430855  0.000000000     1.000000000  0.000000000  0.000000000
     0.000000000  0.088861716  0.000000000     0.000000000  1.000000000  0.000000000
     0.000000000  0.000000000  0.064053134     0.000000000  0.000000000  1.000000000

  Length of vectors
     0.088861710  0.088861716  0.064053134

  Shift w.r.t. Gamma in fractional coordinates (k-lattice)
     0.000000000  0.000000000  0.000000000

 
 Subroutine IBZKPT returns following result:
 ===========================================
 
 Found      1 irreducible k-points:
 
 Following reciprocal coordinates:
            Coordinates               Weight
  0.000000  0.000000  0.000000      1.000000
 
 Following cartesian coordinates:
            Coordinates               Weight
  0.000000  0.000000  0.000000      1.000000
 
 
 Subroutine IBZKPT_HF returns following result:
 ==============================================
 
 Found      1 k-points in 1st BZ
 the following      1 k-points will be used (e.g. in the exchange kernel)
 Following reciprocal coordinates:   # in IRBZ
  0.000000  0.000000  0.000000    1.00000000   1 t-inv F


--------------------------------------------------------------------------------------------------------




 Dimension of arrays:
   k-points           NKPTS =      1   k-points in BZ     NKDIM =      1   number of bands    NBANDS=   1056
   number of dos      NEDOS =    301   number of ions     NIONS =    191
   non local maximal  LDIM  =      6   non local SUM 2l+1 LMDIM =     18
   total plane-waves  NPLWV = 327680
   max r-space proj   IRMAX =   2305   max aug-charges    IRDMAX=   6476
   dimension x,y,z NGX =    64 NGY =   64 NGZ =   80
   dimension x,y,z NGXF=   128 NGYF=  128 NGZF=  160
   support grid    NGXF=   128 NGYF=  128 NGZF=  160
   ions per type =              95  95   1
   NGX,Y,Z   is equivalent  to a cutoff of   8.19,  8.19,  8.52 a.u.
   NGXF,Y,Z  is equivalent  to a cutoff of  16.38, 16.38, 17.04 a.u.

 SYSTEM =  zno                                     
 POSCAR =    Zn2 O2                                

 Startparameter for this run:
   NWRITE =      2    write-flag & timer
   PREC   = normal    normal or accurate (medium, high low for compatibility)
   ISTART =      0    job   : 0-new  1-cont  2-samecut
   ICHARG =      2    charge: 1-file 2-atom 10-const
   ISPIN  =      2    spin polarized calculation?
   LNONCOLLINEAR =      F non collinear calculations
   LSORBIT =      F    spin-orbit coupling
   INIWAV =      1    electr: 0-lowe 1-rand  2-diag
   LASPH  =      F    aspherical Exc in radial PAW
 Electronic Relaxation 1
   ENCUT  =  400.0 eV  29.40 Ry    5.42 a.u.  21.19 21.19 25.46*2*pi/ulx,y,z
   ENINI  =  400.0     initial cutoff
   ENAUG  =  605.4 eV  augmentation charge cutoff
   NELM   =   1000;   NELMIN=  4; NELMDL= -5     # of ELM steps 
   EDIFF  = 0.1E-05   stopping-criterion for ELM
   LREAL  =      T    real-space projection
   NLSPLINE    = F    spline interpolate recip. space projectors
   LCOMPAT=      F    compatible to vasp.4.4
   GGA_COMPAT  = T    GGA compatible to vasp.4.4-vasp.4.6
   LMAXPAW     = -100 max onsite density
   LMAXMIX     =    2 max onsite mixed and CHGCAR
   VOSKOWN=      0    Vosko Wilk Nusair interpolation
   ROPT   =   -0.00050  -0.00050  -0.00050
 Ionic relaxation
   EDIFFG = -.1E-01   stopping-criterion for IOM
   NSW    =     24    number of steps for IOM
   NBLOCK =      1;   KBLOCK =     24    inner block; outer block 
   IBRION =      2    ionic relax: 0-MD 1-quasi-New 2-CG
   NFREE  =      1    steps in history (QN), initial steepest desc. (CG)
   ISIF   =      2    stress and relaxation
   IWAVPR =     11    prediction:  0-non 1-charg 2-wave 3-comb
   ISYM   =      3    0-nonsym 1-usesym 2-fastsym
   LCORR  =      T    Harris-Foulkes like correction to forces

   POTIM  = 0.5000    time-step for ionic-motion
   TEIN   =    0.0    initial temperature
   TEBEG  =    0.0;   TEEND  =   0.0 temperature during run
   SMASS  =  -3.00    Nose mass-parameter (am)
   estimated Nose-frequenzy (Omega)   =  0.10E-29 period in steps = 0.13E+47 mass=  -0.386E-26a.u.
   SCALEE = 1.0000    scale energy and forces
   NPACO  =    256;   APACO  = 10.0  distance and # of slots for P.C.
   PSTRESS=    0.0 pullay stress

  Mass of Ions in am
   POMASS =  65.39 16.00 95.94
  Ionic Valenz
   ZVAL   =  12.00  6.00 14.00
  Atomic Wigner-Seitz radii
   RWIGS  =  -1.00 -1.00 -1.00
  virtual crystal weights 
   VCA    =   1.00  1.00  1.00
   NELECT =    1722.0000    total number of electrons
   NUPDOWN=      -1.0000    fix difference up-down

 DOS related values:
   EMIN   =  10.00;   EMAX   =-10.00  energy-range for DOS
   EFERMI =   0.00;   METHOD = LEGACY      
   ISMEAR =     0;   SIGMA  =   0.01  broadening in eV -4-tet -1-fermi 0-gaus

 Electronic relaxation 2 (details)
   IALGO  =     53    algorithm
   LDIAG  =      T    sub-space diagonalisation (order eigenvalues)
   LSUBROT=      F    optimize rotation matrix (better conditioning)
   TURBO    =      0    0=normal 1=particle mesh
   IRESTART =      0    0=no restart 2=restart with 2 vectors
   NREBOOT  =      0    no. of reboots
   NMIN     =      0    reboot dimension
   EREF     =   0.00    reference energy to select bands
   IMIX   =      4    mixing-type and parameters
     AMIX     =   0.40;   BMIX     =  1.00
     AMIX_MAG =   1.60;   BMIX_MAG =  1.00
     AMIN     =   0.10
     WC   =   100.;   INIMIX=   1;  MIXPRE=   1;  MAXMIX= -45

 Intra band minimization:
   WEIMIN = 0.0010     energy-eigenvalue tresh-hold
   EBREAK =  0.24E-09  absolut break condition
   DEPER  =   0.30     relativ break condition  

   TIME   =   0.30     timestep for ELM

  volume/ion in A,a.u.               =      11.95        80.66
  Fermi-wavevector in a.u.,A,eV,Ry     =   1.490228  2.816122 30.215533  2.220779
  Thomas-Fermi vector in A             =   2.603036
 
 Write flags
   LWAVE        =      T    write WAVECAR
   LDOWNSAMPLE  =      F    k-point downsampling of WAVECAR
   LCHARG       =      T    write CHGCAR
   LVTOT        =      F    write LOCPOT, total local potential
   LVHAR        =      T    write LOCPOT, Hartree potential only
   LELF         =      F    write electronic localiz. function (ELF)
   LORBIT       =     11    0 simple, 1 ext, 2 COOP (PROOUT), +10 PAW based schemes


 Dipole corrections
   LMONO  =      F    monopole corrections only (constant potential shift)
   LDIPOL =      F    correct potential (dipole corrections)
   IDIPOL =      0    1-x, 2-y, 3-z, 4-all directions 
   EPSILON=  1.0000000 bulk dielectric constant

 Exchange correlation treatment:
   GGA     =    PE    GGA type
   LEXCH   =     8    internal setting for exchange type
   LIBXC   =     F    Libxc                    
   VOSKOWN =     0    Vosko Wilk Nusair interpolation
   EXXOEP  =     0    0=HF, 1=EXX-LHF (local Hartree Fock) 2=EXX OEP
   LHFCALC =     T    Hartree Fock is set to
   LSYMGRAD=     F    symmetrize gradient (conserves proper symmetry)
   PRECFOCK=normal    Normal, Fast or Accurate (Low or Medium for compatibility)
   LRHFCALC=     F    long range Hartree Fock
   LRSCOR  =     F    long range correlation only (use DFT for short range part)
   LTHOMAS =     F    Thomas Fermi screening in HF
   LMODELHF=     F    short range full HF, long range fraction AEXX
   FOCKCORR=     1    mode to apply convergence corrections
   LFOCKACE=     T    use Adeptively-Compressed-Exchange operator
   ENCUT4O =  -1.0   cutoff for four orbital integrals eV
   LMAXFOCK=     4    L truncation for augmentation on plane wave grid
   LMAXFOCKAE=  -1    L truncation for all-electron charge restoration on plane wave grid
   NMAXFOCKAE=   1    number of basis functions for all-electron charge restoration
   LFOCKAEDFT=     F  apply the AE augmentation even for DFT
   NKREDX  =     1    reduce k-point grid by
   NKREDY  =     1    reduce k-point grid by
   NKREDZ  =     1    reduce k-point grid by
   SHIFTRED=     F    shift reduced grid of Gamma
   HFKIDENT=     F    idential grid for each k-point
   ODDONLY =     F    use only odd q-grid points
   EVENONLY=     F    use only even q-grid points
   HFALPHA =   -1.0000 decay constant for conv. correction
   MCALPHA =    0.0000 extent of test-charge in conv. correction in multipole expansion
   AEXX    =    0.3750 exact exchange contribution
   HFSCREEN=    0.2000 screening length (either q_TF or 0.3 A-1)
   HFSCREENC=   0.2000 screening length for correlation (either q_TF or 0.3 A-1)
   HFRCUT  =    0.0000 spherical cutoff for potential kernel
   ALDAX   =    0.6250 LDA exchange part
   AGGAX   =    0.6250 GGA exchange part
   ALDAC   =    1.0000 LDA correlation
   AGGAC   =    1.0000 GGA correlation
   ENCUTFOCK=  -1.0 apply spherical cutoff to Coloumb kernel
   NBANDSGWLOW=     1    first orbital included in HF term
   NBLOCK_FOCK=    64    blocking factor in FOCK_ACC

 Linear response parameters
   LEPSILON=     F    determine dielectric tensor
   LRPA    =     F    only Hartree local field effects (RPA)
   LNABLA  =     F    use nabla operator in PAW spheres
   LVEL    =     F    velocity operator in full k-point grid
   CSHIFT  =0.1000    complex shift for real part using Kramers Kronig
   OMEGAMAX=  -1.0    maximum frequency
   DEG_THRESHOLD= 0.2000000E-02 threshold for treating states as degnerate
   RTIME   =   -0.100 relaxation time in fs
  (WPLASMAI=    0.000 imaginary part of plasma frequency in eV, 0.658/RTIME)
   DFIELD  = 0.0000000 0.0000000 0.0000000 field for delta impulse in time
 
  Optional k-point grid parameters
   LKPOINTS_OPT  =     F    use optional k-point grid
   KPOINTS_OPT_MODE=     1    mode for optional k-point grid
 
 Orbital magnetization related:
   ORBITALMAG=     F  switch on orbital magnetization
   LCHIMAG   =     F  perturbation theory with respect to B field
   DQ        =  0.001000  dq finite difference perturbation B field
   LLRAUG    =     F  two centre corrections for induced B field
   LBONE     =     F  B-component reconstruction in AE one-centre
   LVGVCALC  =     T  calculate vGv susceptibility
   LVGVAPPL  =     F  apply vGv susceptibility instead of pGv for G=0

 Random number generation:
   RANDOM_GENERATOR = DEFAULT
   PCG_SEED         = not used


--------------------------------------------------------------------------------------------------------


 conjugate gradient relaxation of ions
 charge density and potential will be updated during run
 spin polarized calculation
 Conjugate gradient for all bands (Freysoldt, et al. PRB 79, 241103 (2009))
 perform sub-space diagonalisation
    before iterative eigenvector-optimisation
 modified Broyden-mixing scheme, WC =      100.0
 initial mixing is a Kerker type mixing with AMIX =  0.4000 and BMIX =      1.0000
 Hartree-type preconditioning will be used
 using additional bands          195
 real space projection scheme for non local part
 use partial core corrections
 no Harris-corrections to forces 
 use gradient corrections 
 use of overlap-Matrix (Vanderbilt PP)
 Gauss-broadening in eV      SIGMA  =   0.01


--------------------------------------------------------------------------------------------------------


  energy-cutoff  :      400.00
  volume of cell :     2282.97
      direct lattice vectors                 reciprocal lattice vectors
    12.994354248  0.000000000  0.000000000     0.076956498  0.044430855  0.000000000
    -6.497176647 11.253440059  0.000000000     0.000000000  0.088861716  0.000000000
     0.000000000  0.000000000 15.612038612     0.000000000  0.000000000  0.064053134

  length of vectors
    12.994354248 12.994353294 15.612038612     0.088861710  0.088861716  0.064053134


 
 k-points in units of 2pi/SCALE and weight: pymatgen with grid density = 659 / numbe
   0.00000000  0.00000000  0.00000000       1.000
 
 k-points in reciprocal lattice and weights: pymatgen with grid density = 659 / numbe
   0.00000000  0.00000000  0.00000000       1.000
 
 position of ions in fractional coordinates (direct lattice) 
   0.16658812  0.08341189  0.16555255
   0.16670092  0.08329909  0.49974515
   0.16652282  0.08347719  0.83367740
   0.16609690  0.33304846  0.16570955
   0.16510630  0.33255316  0.49956591
   0.16629800  0.33314901  0.83372893
   0.16658812  0.58317620  0.16555255
   0.16670092  0.58340180  0.49974515
   0.16652282  0.58304561  0.83367740
   0.16696188  0.83348092  0.16555001
   0.16785669  0.83392832  0.50013707
   0.16693333  0.83346664  0.83380414
   0.41651908  0.08303813  0.16555001
   0.41607168  0.08214331  0.50013707
   0.41653336  0.08306668  0.83380414
   0.41525855  0.33246373  0.16579150
   0.40721747  0.32715214  0.50173052
   0.41732834  0.33370583  0.83351618
   0.41525855  0.58279478  0.16579150
   0.40721747  0.58006530  0.50173052
   0.41732834  0.58362248  0.83351618
   0.41651908  0.83348092  0.16555001
   0.41607168  0.83392832  0.50013707
   0.41653336  0.83346664  0.83380414
   0.66682380  0.08341189  0.16555255
   0.66659820  0.08329909  0.49974515
   0.66695439  0.08347719  0.83367740
   0.66720522  0.33246373  0.16579150
   0.66993470  0.32715214  0.50173052
   0.66637752  0.33370583  0.83351618
   0.66666669  0.58333331  0.16633818
   0.66666669  0.58333331  0.83491971
   0.66720522  0.83474145  0.16579150
   0.66993470  0.84278253  0.50173052
   0.66637752  0.83267166  0.83351618
   0.91695157  0.08390311  0.16570955
   0.91744687  0.08489371  0.49956591
   0.91685102  0.08370201  0.83372893
   0.91695157  0.33304846  0.16570955
   0.91744687  0.33255316  0.49956591
   0.91685102  0.33314901  0.83372893
   0.91753630  0.58279478  0.16579150
   0.92284789  0.58006530  0.50173052
   0.91629420  0.58362248  0.83351618
   0.91753630  0.83474145  0.16579150
   0.92284789  0.84278253  0.50173052
   0.91629420  0.83267166  0.83351618
   0.08331236  0.16668764  0.99979586
   0.08329889  0.16670112  0.33225553
   0.08325291  0.16674710  0.66679764
   0.08331236  0.41662474  0.99979586
   0.08329889  0.41659780  0.33225553
   0.08325291  0.41650584  0.66679764
   0.08331076  0.66665592  0.99967041
   0.08497079  0.66739669  0.33185649
   0.08427650  0.66718111  0.66776438
   0.08331076  0.91665488  0.99967041
   0.08497079  0.91757413  0.33185649
   0.08427650  0.91709543  0.66776438
   0.33334515  0.16668925  0.99967041
   0.33242590  0.16502922  0.33185649
   0.33290460  0.16572350  0.66776438
   0.33334204  0.41667103  0.99967235
   0.33173662  0.41586833  0.33209504
   0.33200200  0.41600102  0.66851421
   0.33334515  0.66665592  0.99967041
   0.33242590  0.66739669  0.33185649
   0.33290460  0.66718111  0.66776438
   0.33333334  0.91666669  0.99970144
   0.33333334  0.91666669  0.33226405
   0.33333334  0.91666669  0.66687296
   0.58334408  0.16668925  0.99967041
   0.58260331  0.16502922  0.33185649
   0.58281889  0.16572350  0.66776438
   0.58325260  0.41650526  0.00119947
   0.58178881  0.41357769  0.32689509
   0.58357610  0.41715226  0.66511715
   0.58325260  0.66674740  0.00119947
   0.58178881  0.66821119  0.32689509
   0.58357610  0.66642390  0.66511715
   0.58334408  0.91665488  0.99967041
   0.58260331  0.91757413  0.33185649
   0.58281889  0.91709543  0.66776438
   0.83337526  0.16668764  0.99979586
   0.83340220  0.16670112  0.33225553
   0.83349416  0.16674710  0.66679764
   0.83332897  0.41667103  0.99967235
   0.83413167  0.41586833  0.33209504
   0.83399898  0.41600102  0.66851421
   0.83349474  0.66674740  0.00119947
   0.83642231  0.66821119  0.32689509
   0.83284774  0.66642390  0.66511715
   0.83332897  0.91665799  0.99967235
   0.83413167  0.91826341  0.33209504
   0.83399898  0.91799803  0.66851421
   0.16653461  0.08346539  0.29327346
   0.16676947  0.08323054  0.62658858
   0.16666605  0.08333396  0.96046926
   0.16650608  0.33325305  0.29345386
   0.16715111  0.33357556  0.62633919
   0.16687146  0.33343573  0.96050311
   0.16653461  0.58306920  0.29327346
   0.16676947  0.58353891  0.62658858
   0.16666605  0.58333207  0.96046926
   0.16670205  0.83335100  0.29324418
   0.16618668  0.83309331  0.62682532
   0.16655451  0.83327723  0.96051908
   0.41664900  0.08329796  0.29324418
   0.41690669  0.08381333  0.62682532
   0.41672277  0.08344550  0.96051908
   0.41630681  0.33316876  0.29454691
   0.41790797  0.33478917  0.62695059
   0.41759254  0.33391272  0.96034779
   0.41630681  0.58313802  0.29454691
   0.41790797  0.58311877  0.62695059
   0.41759254  0.58367979  0.96034779
   0.41664900  0.83335100  0.29324418
   0.41690669  0.83309331  0.62682532
   0.41672277  0.83327723  0.96051908
   0.66693080  0.08346539  0.29327346
   0.66646109  0.08323054  0.62658858
   0.66666793  0.08333396  0.96046926
   0.66686198  0.33316876  0.29454691
   0.66688123  0.33478917  0.62695059
   0.66632021  0.33391272  0.96034779
   0.66666669  0.58333331  0.29811039
   0.66666669  0.58333331  0.96112849
   0.66686198  0.83369319  0.29454691
   0.66688123  0.83209203  0.62695059
   0.66632021  0.83240746  0.96034779
   0.91674698  0.08349393  0.29345386
   0.91642447  0.08284890  0.62633919
   0.91656430  0.08312855  0.96050311
   0.91674698  0.33325305  0.29345386
   0.91642447  0.33357556  0.62633919
   0.91656430  0.33343573  0.96050311
   0.91683127  0.58313802  0.29454691
   0.91521086  0.58311877  0.62695059
   0.91608731  0.58367979  0.96034779
   0.91683127  0.83369319  0.29454691
   0.91521086  0.83209203  0.62695059
   0.91608731  0.83240746  0.96034779
   0.08334520  0.16665481  0.12703709
   0.08361296  0.16638705  0.45988782
   0.08332946  0.16667054  0.79336509
   0.08334520  0.41669042  0.12703709
   0.08361296  0.41722594  0.45988782
   0.08332946  0.41665894  0.79336509
   0.08323002  0.66662214  0.12709424
   0.08381871  0.66742787  0.45958542
   0.08281804  0.66652869  0.79387069
   0.08323002  0.91660792  0.12709424
   0.08381871  0.91639087  0.45958542
   0.08281804  0.91628939  0.79387069
   0.33339211  0.16676999  0.12709424
   0.33360916  0.16618130  0.45958542
   0.33371064  0.16718196  0.79387069
   0.33335483  0.41667743  0.12728331
   0.33419837  0.41709920  0.46000631
   0.33373208  0.41686606  0.79425634
   0.33339211  0.66662214  0.12709424
   0.33360916  0.66742787  0.45958542
   0.33371064  0.66652869  0.79387069
   0.33333334  0.91666669  0.12690741
   0.33333334  0.91666669  0.45974622
   0.33333334  0.91666669  0.79348369
   0.58337786  0.16676999  0.12709424
   0.58257213  0.16618130  0.45958542
   0.58347131  0.16718196  0.79387069
   0.58342627  0.41685260  0.12923680
   0.58478877  0.41957759  0.46437246
   0.58438758  0.41877523  0.79033229
   0.58342627  0.66657373  0.12923680
   0.58478877  0.66521123  0.46437246
   0.58438758  0.66561242  0.79033229
   0.58337786  0.91660792  0.12709424
   0.58257213  0.91639087  0.45958542
   0.58347131  0.91628939  0.79387069
   0.83330958  0.16665481  0.12703709
   0.83277406  0.16638705  0.45988782
   0.83334106  0.16667054  0.79336509
   0.83332257  0.41667743  0.12728331
   0.83290080  0.41709920  0.46000631
   0.83313394  0.41686606  0.79425634
   0.83314740  0.66657373  0.12923680
   0.83042241  0.66521123  0.46437246
   0.83122477  0.66561242  0.79033229
   0.83332257  0.91664520  0.12728331
   0.83290080  0.91580166  0.46000631
   0.83313394  0.91626795  0.79425634
   0.66666669  0.58333331  0.49710463
 
 position of ions in cartesian coordinates  (Angst):
   1.62276320  0.93867072  2.58461288
   1.62496185  0.93740133  7.80204064
   1.62149053  0.93940550 13.01540374
  -0.00555271  3.74794084  2.58706392
  -0.01520687  3.74236701  7.79924224
  -0.00359285  3.74907237 13.01620827
  -1.62429380  6.56273843  2.58461288
  -1.62429380  6.56527721  7.80204064
  -1.62429380  6.56126887 13.01540374
  -3.24571094  9.37952754  2.58457316
  -3.23699029  9.38456241  7.80815931
  -3.24598916  9.37936691 13.01738246
   4.87288313  0.93446460  2.58457316
   4.87288313  0.92439486  7.80815931
   4.87288313  0.93478586 13.01738246
   3.23594107  3.74136071  2.58834333
   3.16596278  3.68158695  7.83303628
   3.25476658  3.75533851 13.01288681
   1.60949603  6.55844616  2.58834333
   1.52274129  6.52773006  7.83303628
   1.63101392  6.56776062 13.01288681
  -0.00287623  9.37952754  2.58457316
  -0.01159688  9.38456241  7.80815931
  -0.00259801  9.37936691 13.01738246
   8.12300287  0.93867072  2.58461288
   8.12080422  0.93740133  7.80204064
   8.12427553  0.93940550 13.01540374
   6.50982533  3.74136071  2.58834333
   6.57980362  3.68158695  7.83303628
   6.49099983  3.75533851 13.01288681
   4.87288352  6.56450647  2.59687808
   4.87288352  6.56450647 13.03479879
   3.24643828  9.39371289  2.58834333
   3.22966184  9.48420274  7.83303628
   3.24913066  9.37042062 13.01288681
  11.37006025  0.94419861  2.58706392
  11.37006025  0.95534627  7.79924224
  11.37006025  0.94193556 13.01620827
   9.75131892  3.74794084  2.58706392
   9.76097308  3.74236701  7.79924224
   9.74935906  3.74907237 13.01620827
   8.13627100  6.55844616  2.58834333
   8.22302574  6.52773006  7.83303628
   8.11475312  6.56776062 13.01288681
   6.49932899  9.39371289  2.58834333
   6.51610545  9.48420274  7.83303628
   6.49663661  9.37042062 13.01288681
  -0.00040871  1.87580942 15.60885161
  -0.00067128  1.87596101  5.18718609
  -0.00156750  1.87647844 10.41007047
  -1.62429418  4.68846155 15.60885161
  -1.62429418  4.68815837  5.18718609
  -1.62429418  4.68712351 10.41007047
  -3.24881174  7.50217248 15.60689310
  -3.23205367  7.51050867  5.18095629
  -3.23967481  7.50808268 10.42516329
  -4.87309909 10.31552070 15.60689310
  -4.85750071 10.32586553  5.18095629
  -4.86341225 10.32047842 10.42516329
   3.24859554  1.87582743 15.60689310
   3.24743585  1.85714643  5.18095629
   3.24914546  1.86495952 10.42516329
   1.62437919  4.68898250 15.60692338
   1.60873318  4.67994927  5.18468052
   1.61131955  4.68144251 10.43686967
   0.00022371  7.50217248 15.60689310
  -0.01653436  7.51050867  5.18095629
  -0.00891322  7.50808268 10.42516329
  -1.62429385 10.31565362 15.60737745
  -1.62429385 10.31565362  5.18731923
  -1.62429385 10.31565362 10.41124633
   6.49717009  1.87582743 15.60689310
   6.49832978  1.85714643  5.18095629
   6.49662018  1.86495952 10.42516329
   4.87288265  4.68711702  0.01872617
   4.87288264  4.65417171  5.10349872
   4.87288265  4.69439791 10.38383456
   3.24701529  7.50320188  0.01872617
   3.21848382  7.51967454  5.10349872
   3.25332072  7.49956144 10.38383456
   1.62451091 10.31552070 15.60689310
   1.60891253 10.32586553  5.18095629
   1.61482407 10.32047842 10.42516329
   9.74617426  1.87580942 15.60885161
   9.74643683  1.87596101  5.18718609
   9.74733304  1.87647844 10.41007047
   8.12138649  4.68898250 15.60692338
   8.13703250  4.67994927  5.18468052
   8.13444613  4.68144251 10.43686967
   6.49875024  7.50320188  0.01872617
   6.52728171  7.51967454  5.10349872
   6.49244480  7.49956144 10.38383456
   4.87288288 10.31555580 15.60692338
   4.87288288 10.33362225  5.18468052
   4.87288288 10.33063577 10.43686967
   1.62172034  0.93927282  4.57859655
   1.62629809  0.93662986  9.78232513
   1.62428228  0.93779368 14.99488316
  -0.00156490  3.75024320  4.58141295
   0.00472134  3.75387257  9.77843156
   0.00199594  3.75229906 14.99541160
  -1.62429380  6.56153424  4.57859655
  -1.62429380  6.56682016  9.78232513
  -1.62429380  6.56449251 14.99488316
  -3.24824322  9.37806553  4.57813943
  -3.25326589  9.37516568  9.78602115
  -3.24968106  9.37723539 14.99566101
   4.87288313  0.93738862  4.57813943
   4.87288313  0.94318831  9.78602115
   4.87288313  0.93904890 14.99566101
   3.24498190  3.74929472  4.59847774
   3.25525986  3.76752987  9.78797677
   3.25685546  3.75766678 14.99298671
   1.62088750  6.56230874  4.59847774
   1.64181859  6.56209214  9.78797677
   1.63407470  6.56840551 14.99298671
  -0.00034395  9.37806553  4.57813943
   0.00467872  9.37516568  9.78602115
   0.00109389  9.37723539 14.99566101
   8.12404572  0.93927282  4.57859655
   8.11946798  0.93662986  9.78232513
   8.12148378  0.93779368 14.99488316
   6.50078450  3.74929472  4.59847774
   6.49050655  3.76752987  9.78797677
   6.48891094  3.75766678 14.99298671
   4.87288352  6.56450647  4.65411096
   4.87288352  6.56450647 15.00517507
   3.24878892  9.38191629  4.59847774
   3.25944205  9.36389775  9.78797677
   3.25010256  9.36744746 14.99298671
  11.37006025  0.93959388  4.58141295
  11.37006025  0.93233516  9.77843156
  11.37006025  0.93548218 14.99541160
   9.74733111  3.75024320  4.58141295
   9.74104487  3.75387257  9.77843156
   9.74377027  3.75229906 14.99541160
   8.12487954  6.56230874  4.59847774
   8.10394845  6.56209214  9.78797677
   8.11169234  6.56840551 14.99298671
   6.49697836  9.38191629  4.59847774
   6.48632522  9.36389775  9.78797677
   6.49566472  9.36744746 14.99298671
   0.00023137  1.87543987  1.98330792
   0.00545040  1.87242666  7.17978647
  -0.00007541  1.87561698 12.38604641
  -1.62429418  4.68920066  1.98330792
  -1.62429418  4.69522708  7.17978647
  -1.62429418  4.68884642 12.38604641
  -3.24964140  7.50179227  1.98420016
  -3.24722683  7.51085958  7.17506531
  -3.25438765  7.50074067 12.39393983
  -4.87384320 10.31499231  1.98420016
  -4.86478339 10.31254973  7.17506531
  -4.87712703 10.31140773 12.39393983
   3.24868109  1.87673604  1.98420016
   3.25532633  1.87011131  7.17506531
   3.25014351  1.88137222 12.39393983
   1.62450388  4.68905449  1.98715195
   1.63272485  4.69380086  7.18163627
   1.62818047  4.69117717 12.39996066
   0.00105337  7.50179227  1.98420016
  -0.00136120  7.51085958  7.17506531
   0.00579962  7.50074067 12.39393983
  -1.62429385 10.31565362  1.98128345
  -1.62429385 10.31565362  7.17757570
  -1.62429385 10.31565362 12.38789800
   6.49708455  1.87673604  1.98420016
   6.49043930  1.87011131  7.17506531
   6.49562212  1.88137222 12.39393983
   4.87288265  4.69102576  2.01764992
   4.87288265  4.72169129  7.24980080
   4.87288265  4.71266194 12.33869826
   3.25040036  7.50124752  2.01764992
   3.27695749  7.48591475  7.24980080
   3.26913784  7.49042943 12.33869826
   1.62525502 10.31499231  1.98420016
   1.61619521 10.31254973  7.17506531
   1.62853885 10.31140773 12.39393983
   9.74553418  1.87543987  1.98330792
   9.74031515  1.87242666  7.17978647
   9.74584095  1.87561698 12.38604641
   8.12126180  4.68905449  1.98715195
   8.11304083  4.69380086  7.18163627
   8.11758521  4.69117717 12.39996066
   6.49536517  7.50124752  2.01764992
   6.46880804  7.48591475  7.24980080
   6.47662769  7.49042943 12.33869826
   4.87288288 10.31541181  1.98715195
   4.87288288 10.30591906  7.18163627
   4.87288288 10.31116645 12.39996066
   4.87288352  6.56450647  7.76081661
 


--------------------------------------------------------------------------------------------------------


 use parallel FFT for orbitals z direction half grid
 k-point   1 :   0.0000 0.0000 0.0000  plane waves:   20744

 maximum and minimum number of plane-waves per node :      2599     2585

 maximum number of plane-waves:     20744
 maximum index in each direction: 
   IXMAX=   21   IYMAX=   21   IZMAX=   25
   IXMIN=  -21   IYMIN=  -21   IZMIN=    0


 real space projection operators:
  total allocation   :      30014.48 KBytes
  max/ min on nodes  :       4072.86       3462.94


 parallel 3D FFT for wavefunctions:
    minimum data exchange during FFTs selected (reduces bandwidth)
 parallel 3D FFT for charge:
    minimum data exchange during FFTs selected (reduces bandwidth)

 
 Radii for the augmentation spheres in the non-local exchange
 for species   1 augmentation radius   1.190 (default was   0.952)
       energy cutoff for augmentation   1600.0
 for species   2 augmentation radius   0.902 (default was   0.722)
       energy cutoff for augmentation   1600.0
 for species   3 augmentation radius   1.352 (default was   1.082)
       energy cutoff for augmentation   1600.0

 real space projection operators:
  total allocation   :      22047.16 KBytes
  max/ min on nodes  :       2924.46       2500.70

 Maximum index for augmentation-charges in exchange          203
  SETUP_FOCK is finished

 total amount of memory used by VASP MPI-rank0    52308. kBytes
=======================================================================

   base      :      30000. kBytes
   nonlr-proj:       8597. kBytes
   fftplans  :       2267. kBytes
   grid      :       5113. kBytes
   one-center:        373. kBytes
   HF        :        129. kBytes
   wavefun   :       5829. kBytes
 
     INWAV:  cpu time      0.0001: real time      0.0006
 Broyden mixing: mesh for mixing (old mesh)
   NGX = 43   NGY = 43   NGZ = 51
  (NGX  =128   NGY  =128   NGZ  =160)
  gives a total of  94299 points

[...]
      4.87288     10.31560      1.98662        -0.000000     -0.000808     -0.002186
      4.87288     10.30500      7.18073        -0.000000     -0.001986      0.000894
      4.87288     10.31145     12.39984        -0.000000     -0.001042     -0.004892
      4.87288      6.56451      7.76308        -0.000000      0.000000      0.006107
 -----------------------------------------------------------------------------------
    total drift:                               -0.000337      0.000017      0.145011


--------------------------------------------------------------------------------------------------------



  FREE ENERGIE OF THE ION-ELECTRON SYSTEM (eV)
  ---------------------------------------------------
  free  energy   TOTEN  =     -1223.69844213 eV

  energy  without entropy=    -1223.69844213  energy(sigma->0) =    -1223.69844213
 
 d Force = 0.1641572E-03[-0.111E-04, 0.339E-03]  d Energy = 0.2008390E-03-0.367E-04
 d Force = 0.6375399E+00[ 0.633E+00, 0.642E+00]  d Ewald  = 0.6375419E+00-0.195E-05


--------------------------------------------------------------------------------------------------------


    POTLOK:  cpu time      0.9334: real time      0.9418


--------------------------------------------------------------------------------------------------------


 Conjugate gradient step on ions:
 trial-energy change:   -0.000201  1 .order   -0.000164   -0.000339    0.000011
  (g-gl).g = 0.334E-03      g.g   = 0.332E-03  gl.gl    = 0.629E-03
 g(Force)  = 0.332E-03   g(Stress)= 0.000E+00 ortho     = 0.336E-05
 gamma     =   0.53214
 trial     =   1.01835
 opt step  =   0.99836  (harmonic =   0.98606) maximal distance =0.00092493
 next E    = -1223.698442   (d E  =  -0.00020)


--------------------------------------------------------------------------------------------------------


  
 reached required accuracy - stopping structural energy minimisation
 writing wavefunctions
     LOOP+:  cpu time   2514.9813: real time   2572.3398
    4ORBIT:  cpu time      0.0000: real time      0.0000



 total charge

# of ion       s       p       d       tot
------------------------------------------
    1        0.408   0.479   9.952  10.839
    2        0.408   0.477   9.950  10.834
    3        0.407   0.475   9.949  10.831
    4        0.408   0.479   9.952  10.839
    5        0.407   0.475   9.949  10.831
    6        0.407   0.475   9.950  10.832
    7        0.408   0.479   9.952  10.839
    8        0.408   0.477   9.950  10.834
    9        0.407   0.475   9.949  10.831
   10        0.408   0.479   9.952  10.839
   11        0.408   0.479   9.952  10.838
   12        0.408   0.477   9.950  10.834
   13        0.408   0.479   9.952  10.839
   14        0.408   0.479   9.952  10.838
   15        0.408   0.477   9.950  10.834
   16        0.408   0.477   9.951  10.837
   17        0.414   0.477   9.947  10.838
   18        0.406   0.471   9.948  10.824
   19        0.408   0.477   9.951  10.837
   20        0.414   0.477   9.947  10.838
   21        0.406   0.471   9.948  10.824
   22        0.408   0.479   9.952  10.839
   23        0.408   0.479   9.952  10.838
   24        0.408   0.477   9.950  10.834
   25        0.408   0.479   9.952  10.839
   26        0.408   0.477   9.950  10.834
   27        0.407   0.475   9.949  10.831
   28        0.408   0.477   9.951  10.837
   29        0.414   0.477   9.947  10.838
   30        0.406   0.471   9.948  10.824
   31        0.408   0.470   9.947  10.826
   32        0.408   0.479   9.951  10.837
   33        0.408   0.477   9.951  10.837
   34        0.414   0.477   9.947  10.838
   35        0.406   0.471   9.948  10.824
   36        0.408   0.479   9.952  10.839
   37        0.407   0.475   9.949  10.831
   38        0.407   0.475   9.950  10.832
   39        0.408   0.479   9.952  10.839
   40        0.407   0.475   9.949  10.831
   41        0.407   0.475   9.950  10.832
   42        0.408   0.477   9.951  10.837
   43        0.414   0.477   9.947  10.838
   44        0.406   0.471   9.948  10.824
   45        0.408   0.477   9.951  10.837
   46        0.414   0.477   9.947  10.838
   47        0.406   0.471   9.948  10.824
   48        0.408   0.478   9.951  10.837
   49        0.408   0.479   9.952  10.839
   50        0.406   0.473   9.949  10.828
   51        0.408   0.478   9.951  10.837
   52        0.408   0.479   9.952  10.839
   53        0.406   0.473   9.949  10.828
   54        0.407   0.476   9.950  10.833
   55        0.409   0.480   9.952  10.841
   56        0.407   0.472   9.947  10.826
   57        0.407   0.476   9.950  10.833
   58        0.409   0.480   9.952  10.841
   59        0.407   0.472   9.947  10.826
   60        0.407   0.476   9.950  10.833
   61        0.409   0.480   9.952  10.841
   62        0.407   0.472   9.947  10.826
   63        0.407   0.474   9.950  10.830
   64        0.409   0.480   9.953  10.842
   65        0.408   0.476   9.950  10.834
   66        0.407   0.476   9.950  10.833
   67        0.409   0.480   9.952  10.841
   68        0.407   0.472   9.947  10.826
   69        0.408   0.478   9.951  10.837
   70        0.408   0.478   9.951  10.837
   71        0.407   0.474   9.949  10.829
   72        0.407   0.476   9.950  10.833
   73        0.409   0.480   9.952  10.841
   74        0.407   0.472   9.947  10.826
   75        0.407   0.474   9.949  10.830
   76        0.415   0.471   9.946  10.832
   77        0.426   0.436   9.906  10.768
   78        0.407   0.474   9.949  10.830
   79        0.415   0.471   9.946  10.832
   80        0.426   0.436   9.906  10.768
   81        0.407   0.476   9.950  10.833
   82        0.409   0.480   9.952  10.841
   83        0.407   0.472   9.947  10.826
   84        0.408   0.478   9.951  10.837
   85        0.408   0.479   9.952  10.839
   86        0.406   0.473   9.949  10.828
   87        0.407   0.474   9.950  10.830
   88        0.409   0.480   9.953  10.842
   89        0.408   0.476   9.950  10.834
   90        0.407   0.474   9.949  10.830
   91        0.415   0.471   9.946  10.832
   92        0.426   0.436   9.906  10.768
   93        0.407   0.474   9.950  10.830
   94        0.409   0.480   9.953  10.842
   95        0.408   0.476   9.950  10.834
   96        1.573   3.533   0.000   5.106
   97        1.574   3.524   0.000   5.098
   98        1.573   3.530   0.000   5.103
   99        1.573   3.533   0.000   5.106
  100        1.573   3.527   0.000   5.101
  101        1.573   3.530   0.000   5.103
  102        1.573   3.533   0.000   5.106
  103        1.574   3.524   0.000   5.098
  104        1.573   3.530   0.000   5.103
  105        1.573   3.532   0.000   5.105
  106        1.573   3.528   0.000   5.101
  107        1.573   3.531   0.000   5.104
  108        1.573   3.532   0.000   5.105
  109        1.573   3.528   0.000   5.101
  110        1.573   3.531   0.000   5.104
  111        1.573   3.532   0.000   5.105
  112        1.576   3.523   0.000   5.099
  113        1.573   3.528   0.000   5.101
  114        1.573   3.532   0.000   5.105
  115        1.576   3.523   0.000   5.099
  116        1.573   3.528   0.000   5.101
  117        1.573   3.532   0.000   5.105
  118        1.573   3.528   0.000   5.101
  119        1.573   3.531   0.000   5.104
  120        1.573   3.533   0.000   5.106
  121        1.574   3.524   0.000   5.098
  122        1.573   3.530   0.000   5.103
  123        1.573   3.532   0.000   5.105
  124        1.576   3.523   0.000   5.099
  125        1.573   3.528   0.000   5.101
  126        1.575   3.522   0.000   5.097
  127        1.573   3.528   0.000   5.100
  128        1.573   3.532   0.000   5.105
  129        1.576   3.523   0.000   5.099
  130        1.573   3.528   0.000   5.101
  131        1.573   3.533   0.000   5.106
  132        1.573   3.527   0.000   5.101
  133        1.573   3.530   0.000   5.103
  134        1.573   3.533   0.000   5.106
  135        1.573   3.527   0.000   5.101
  136        1.573   3.530   0.000   5.103
  137        1.573   3.532   0.000   5.105
  138        1.576   3.523   0.000   5.099
  139        1.573   3.528   0.000   5.101
  140        1.573   3.532   0.000   5.105
  141        1.576   3.523   0.000   5.099
  142        1.573   3.528   0.000   5.101
  143        1.573   3.532   0.000   5.105
  144        1.573   3.529   0.000   5.102
  145        1.573   3.529   0.000   5.102
  146        1.573   3.532   0.000   5.105
  147        1.573   3.529   0.000   5.102
  148        1.573   3.529   0.000   5.102
  149        1.573   3.532   0.000   5.105
  150        1.573   3.532   0.000   5.105
  151        1.573   3.529   0.000   5.102
  152        1.573   3.532   0.000   5.105
  153        1.573   3.532   0.000   5.105
  154        1.573   3.529   0.000   5.102
  155        1.573   3.532   0.000   5.105
  156        1.573   3.532   0.000   5.105
  157        1.573   3.529   0.000   5.102
  158        1.573   3.531   0.000   5.104
  159        1.574   3.531   0.000   5.104
  160        1.573   3.531   0.000   5.104
  161        1.573   3.532   0.000   5.105
  162        1.573   3.532   0.000   5.105
  163        1.573   3.529   0.000   5.102
  164        1.573   3.533   0.000   5.106
  165        1.573   3.532   0.000   5.105
  166        1.573   3.529   0.000   5.102
  167        1.573   3.532   0.000   5.105
  168        1.573   3.532   0.000   5.105
  169        1.573   3.529   0.000   5.102
  170        1.573   3.527   0.000   5.100
  171        1.593   3.518   0.000   5.110
  172        1.575   3.520   0.000   5.095
  173        1.573   3.527   0.000   5.100
  174        1.593   3.518   0.000   5.110
  175        1.575   3.520   0.000   5.095
  176        1.573   3.532   0.000   5.105
  177        1.573   3.532   0.000   5.105
  178        1.573   3.529   0.000   5.102
  179        1.573   3.532   0.000   5.105
  180        1.573   3.529   0.000   5.102
  181        1.573   3.529   0.000   5.102
  182        1.573   3.531   0.000   5.104
  183        1.574   3.531   0.000   5.104
  184        1.573   3.531   0.000   5.104
  185        1.573   3.527   0.000   5.100
  186        1.593   3.518   0.000   5.110
  187        1.575   3.520   0.000   5.095
  188        1.573   3.531   0.000   5.104
  189        1.574   3.531   0.000   5.104
  190        1.573   3.531   0.000   5.104
  191        2.348   6.196   3.797  12.341
--------------------------------------------------
tot        190.713 386.548 948.9021526.163



 magnetization (x)

# of ion       s       p       d       tot
------------------------------------------
    1       -0.000  -0.000   0.000  -0.000
    2        0.000   0.000  -0.000   0.000
    3       -0.000  -0.000   0.000  -0.000
    4       -0.000  -0.000   0.000  -0.000
    5       -0.000  -0.000   0.000  -0.000
    6       -0.000  -0.000  -0.000  -0.000
    7       -0.000  -0.000   0.000  -0.000
    8        0.000   0.000  -0.000   0.000
    9       -0.000  -0.000   0.000  -0.000
   10       -0.000  -0.000   0.000  -0.000
   11       -0.000   0.000   0.000  -0.000
   12       -0.000  -0.000  -0.000  -0.000
   13       -0.000  -0.000   0.000  -0.000
   14       -0.000   0.000   0.000  -0.000
   15       -0.000  -0.000  -0.000  -0.000
   16       -0.000   0.000   0.000   0.000
   17        0.001   0.001   0.001   0.003
   18       -0.000  -0.000  -0.000  -0.000
   19       -0.000   0.000   0.000   0.000
   20        0.001   0.001   0.001   0.003
   21       -0.000  -0.000  -0.000  -0.000
   22       -0.000  -0.000   0.000  -0.000
   23       -0.000   0.000   0.000  -0.000
   24       -0.000  -0.000  -0.000  -0.000
   25       -0.000  -0.000   0.000  -0.000
   26        0.000   0.000  -0.000   0.000
   27       -0.000  -0.000   0.000  -0.000
   28       -0.000   0.000   0.000   0.000
   29        0.001   0.001   0.001   0.003
   30       -0.000  -0.000  -0.000  -0.000
   31        0.000   0.000   0.000   0.000
   32        0.000   0.000   0.000   0.001
   33       -0.000   0.000   0.000   0.000
   34        0.001   0.001   0.001   0.003
   35       -0.000  -0.000  -0.000  -0.000
   36       -0.000  -0.000   0.000  -0.000
   37       -0.000  -0.000   0.000  -0.000
   38       -0.000  -0.000  -0.000  -0.000
   39       -0.000  -0.000   0.000  -0.000
   40       -0.000  -0.000   0.000  -0.000
   41       -0.000  -0.000  -0.000  -0.000
   42       -0.000   0.000   0.000   0.000
   43        0.001   0.001   0.001   0.003
   44       -0.000  -0.000  -0.000  -0.000
   45       -0.000   0.000   0.000   0.000
   46        0.001   0.001   0.001   0.003
   47       -0.000  -0.000  -0.000  -0.000
   48       -0.000  -0.000   0.000  -0.000
   49       -0.000  -0.000  -0.000  -0.000
   50       -0.000  -0.000   0.000  -0.000
   51       -0.000  -0.000   0.000  -0.000
   52       -0.000  -0.000  -0.000  -0.000
   53       -0.000  -0.000   0.000  -0.000
   54       -0.000  -0.000   0.000  -0.000
   55       -0.000  -0.000  -0.000  -0.000
   56       -0.000  -0.000   0.000  -0.000
   57       -0.000  -0.000   0.000  -0.000
   58       -0.000  -0.000  -0.000  -0.000
   59       -0.000  -0.000   0.000  -0.000
   60       -0.000  -0.000   0.000  -0.000
   61       -0.000  -0.000  -0.000  -0.000
   62       -0.000  -0.000   0.000  -0.000
   63       -0.000  -0.000  -0.000  -0.000
   64       -0.000  -0.000   0.000  -0.000
   65       -0.000  -0.000   0.000  -0.000
   66       -0.000  -0.000   0.000  -0.000
   67       -0.000  -0.000  -0.000  -0.000
   68       -0.000  -0.000   0.000  -0.000
   69       -0.000  -0.000   0.000  -0.000
   70       -0.000  -0.000   0.000  -0.000
   71       -0.000  -0.000   0.000  -0.000
   72       -0.000  -0.000   0.000  -0.000
   73       -0.000  -0.000  -0.000  -0.000
   74       -0.000  -0.000   0.000  -0.000
   75       -0.000   0.000   0.000  -0.000
   76        0.001   0.002   0.001   0.004
   77       -0.009  -0.007   0.002  -0.014
   78       -0.000   0.000   0.000  -0.000
   79        0.001   0.002   0.001   0.004
   80       -0.009  -0.007   0.002  -0.014
   81       -0.000  -0.000   0.000  -0.000
   82       -0.000  -0.000  -0.000  -0.000
   83       -0.000  -0.000   0.000  -0.000
   84       -0.000  -0.000   0.000  -0.000
   85       -0.000  -0.000  -0.000  -0.000
   86       -0.000  -0.000   0.000  -0.000
   87       -0.000  -0.000  -0.000  -0.000
   88       -0.000  -0.000   0.000  -0.000
   89       -0.000  -0.000   0.000  -0.000
   90       -0.000   0.000   0.000  -0.000
   91        0.001   0.002   0.001   0.004
   92       -0.009  -0.007   0.002  -0.014
   93       -0.000  -0.000  -0.000  -0.000
   94       -0.000  -0.000   0.000  -0.000
   95       -0.000  -0.000   0.000  -0.000
   96       -0.000   0.000   0.000  -0.000
   97       -0.000   0.001   0.000   0.001
   98       -0.000   0.000   0.000  -0.000
   99       -0.000   0.000   0.000   0.000
  100       -0.000   0.000   0.000   0.000
  101       -0.000  -0.000   0.000  -0.000
  102       -0.000   0.000   0.000  -0.000
  103       -0.000   0.001   0.000   0.001
  104       -0.000   0.000   0.000  -0.000
  105       -0.000  -0.000   0.000  -0.000
  106       -0.000  -0.000   0.000  -0.000
  107       -0.000  -0.000   0.000  -0.000
  108       -0.000  -0.000   0.000  -0.000
  109       -0.000  -0.000   0.000  -0.000
  110       -0.000  -0.000   0.000  -0.000
  111        0.000   0.000   0.000   0.000
  112       -0.000   0.002   0.000   0.001
  113       -0.000  -0.000   0.000  -0.000
  114        0.000   0.000   0.000   0.000
  115       -0.000   0.002   0.000   0.001
  116       -0.000  -0.000   0.000  -0.000
  117       -0.000  -0.000   0.000  -0.000
  118       -0.000  -0.000   0.000  -0.000
  119       -0.000  -0.000   0.000  -0.000
  120       -0.000   0.000   0.000  -0.000
  121       -0.000   0.001   0.000   0.001
  122       -0.000   0.000   0.000  -0.000
  123        0.000   0.000   0.000   0.000
  124       -0.000   0.002   0.000   0.001
  125       -0.000  -0.000   0.000  -0.000
  126        0.000   0.000   0.000   0.000
  127       -0.000  -0.000   0.000  -0.000
  128        0.000   0.000   0.000   0.000
  129       -0.000   0.002   0.000   0.001
  130       -0.000  -0.000   0.000  -0.000
  131       -0.000   0.000   0.000   0.000
  132       -0.000   0.000   0.000   0.000
  133       -0.000  -0.000   0.000  -0.000
  134       -0.000   0.000   0.000   0.000
  135       -0.000   0.000   0.000   0.000
  136       -0.000  -0.000   0.000  -0.000
  137        0.000   0.000   0.000   0.000
  138       -0.000   0.002   0.000   0.001
  139       -0.000  -0.000   0.000  -0.000
  140        0.000   0.000   0.000   0.000
  141       -0.000   0.002   0.000   0.001
  142       -0.000  -0.000   0.000  -0.000
  143       -0.000   0.000   0.000  -0.000
  144       -0.000   0.000   0.000   0.000
  145       -0.000   0.000   0.000  -0.000
  146       -0.000   0.000   0.000  -0.000
  147       -0.000   0.000   0.000   0.000
  148       -0.000   0.000   0.000  -0.000
  149       -0.000   0.000   0.000  -0.000
  150       -0.000  -0.000   0.000  -0.000
  151       -0.000  -0.000   0.000  -0.000
  152       -0.000   0.000   0.000  -0.000
  153       -0.000  -0.000   0.000  -0.000
  154       -0.000  -0.000   0.000  -0.000
  155       -0.000   0.000   0.000  -0.000
  156       -0.000  -0.000   0.000  -0.000
  157       -0.000  -0.000   0.000  -0.000
  158       -0.000   0.000   0.000  -0.000
  159        0.000   0.000   0.000   0.000
  160       -0.000  -0.000   0.000  -0.000
  161       -0.000   0.000   0.000  -0.000
  162       -0.000  -0.000   0.000  -0.000
  163       -0.000  -0.000   0.000  -0.000
  164       -0.000   0.000   0.000  -0.000
  165       -0.000   0.000   0.000  -0.000
  166       -0.000  -0.000   0.000  -0.000
  167       -0.000   0.000   0.000  -0.000
  168       -0.000  -0.000   0.000  -0.000
  169       -0.000  -0.000   0.000  -0.000
  170       -0.000   0.000   0.000  -0.000
  171        0.000   0.043   0.000   0.043
  172       -0.001  -0.007   0.000  -0.008
  173       -0.000   0.000   0.000  -0.000
  174        0.000   0.043   0.000   0.043
  175       -0.001  -0.007   0.000  -0.008
  176       -0.000   0.000   0.000  -0.000
  177       -0.000  -0.000   0.000  -0.000
  178       -0.000  -0.000   0.000  -0.000
  179       -0.000   0.000   0.000  -0.000
  180       -0.000   0.000   0.000   0.000
  181       -0.000   0.000   0.000  -0.000
  182       -0.000   0.000   0.000  -0.000
  183        0.000   0.000   0.000   0.000
  184       -0.000  -0.000   0.000  -0.000
  185       -0.000   0.000   0.000  -0.000
  186        0.000   0.043   0.000   0.043
  187       -0.001  -0.007   0.000  -0.008
  188       -0.000   0.000   0.000  -0.000
  189        0.000   0.000   0.000   0.000
  190       -0.000  -0.000   0.000  -0.000
  191        0.036   0.016   1.704   1.756
--------------------------------------------------
tot          0.010   0.129   1.717   1.855
 

 total amount of memory used by VASP MPI-rank0   141847. kBytes
=======================================================================

   base      :      30000. kBytes
   nonlr-proj:       8597. kBytes
   fftplans  :       2267. kBytes
   grid      :       5113. kBytes
   one-center:        373. kBytes
   HF        :        129. kBytes
   wavefun   :       5829. kBytes
   fock_wrk  :      89539. kBytes
 
  
  
 General timing and accounting informations for this job:
 ========================================================
  
                  Total CPU time used (sec):    81576.047
                            User time (sec):    70750.524
                          System time (sec):    10825.523
                         Elapsed time (sec):    83711.530
  
                   Maximum memory used (kb):      837740.
                   Average memory used (kb):          N/A
  
                          Minor page faults:     11454047
                          Major page faults:         5784
                 Voluntary context switches:      5388406
