  191  191   30    2
  0.1195271E+02  0.1299435E-08  0.1299435E-08  0.1561204E-08  0.5000000E-15
  1.000000000000000E-004
  CAR 
 zno                                     
   1722      1   1056
 
  0.0000000E+00  0.0000000E+00  0.0000000E+00  0.1000000E+01
      1        -66.697962      -66.697790   1.000000   1.000000
      2        -39.547818      -39.468698   1.000000   1.000000
      3        -38.590786      -38.816453   1.000000   1.000000
      4        -38.296696      -38.149267   1.000000   1.000000
      5        -21.670981      -21.666501   1.000000   1.000000
      6        -21.346731      -21.355245   1.000000   1.000000
      7        -21.240108      -21.237252   1.000000   1.000000
      8        -20.832101      -20.832058   1.000000   1.000000
      9        -20.716569      -20.716583   1.000000   1.000000
     10        -20.622525      -20.623804   1.000000   1.000000
     11        -20.621061      -20.619792   1.000000   1.000000
     12        -20.611203      -20.611133   1.000000   1.000000
     13        -20.554053      -20.552546   1.000000   1.000000
     14        -20.549968      -20.551358   1.000000   1.000000
     15        -20.549089      -20.549263   1.000000   1.000000
     16        -20.514190      -20.514183   1.000000   1.000000
     17        -20.464340      -20.463744   1.000000   1.000000
     18        -20.461168      -20.461808   1.000000   1.000000
     19        -20.402069      -20.402009   1.000000   1.000000
     20        -20.378559      -20.378145   1.000000   1.000000
     21        -20.376259      -20.376702   1.000000   1.000000
     22        -20.365082      -20.365047   1.000000   1.000000
     23        -20.364308      -20.364327   1.000000   1.000000
     24        -20.333735      -20.333695   1.000000   1.000000
     25        -20.324533      -20.324538   1.000000   1.000000
     26        -20.324497      -20.324528   1.000000   1.000000
     27        -20.317997      -20.317966   1.000000   1.000000
     28        -20.306393      -20.306393   1.000000   1.000000
     29        -20.296141      -20.296128   1.000000   1.000000
     30        -20.283729      -20.283714   1.000000   1.000000
     31        -20.268585      -20.268598   1.000000   1.000000
     32        -20.263913      -20.263915   1.000000   1.000000
     33        -20.256823      -20.256971   1.000000   1.000000
     34        -20.256520      -20.256359   1.000000   1.000000
     35        -20.215695      -20.215679   1.000000   1.000000
     36        -20.213985      -20.214284   1.000000   1.000000
     37        -20.199972      -20.200189   1.000000   1.000000
     38        -20.197229      -20.195871   1.000000   1.000000
     39        -20.195036      -20.195791   1.000000   1.000000
     40        -20.168348      -20.168342   1.000000   1.000000
     41        -20.141659      -20.141352   1.000000   1.000000
     42        -20.140444      -20.140809   1.000000   1.000000
     43        -20.138647      -20.138242   1.000000   1.000000
     44        -20.137878      -20.138217   1.000000   1.000000
     45        -20.116296      -20.116278   1.000000   1.000000
     46        -20.111264      -20.110632   1.000000   1.000000
     47        -20.109870      -20.110421   1.000000   1.000000
     48        -20.088389      -20.088355   1.000000   1.000000
     49        -20.074181      -20.074174   1.000000   1.000000
     50        -20.060325      -20.060322   1.000000   1.000000
     51        -20.059494      -20.059453   1.000000   1.000000
     52        -20.045762      -20.045755   1.000000   1.000000
     53        -20.043773      -20.043741   1.000000   1.000000
     54        -20.043459      -20.043474   1.000000   1.000000
     55        -20.038225      -20.038221   1.000000   1.000000
     56        -20.021801      -20.021693   1.000000   1.000000
     57        -20.021448      -20.021559   1.000000   1.000000
     58        -20.009402      -20.009392   1.000000   1.000000
     59        -20.007279      -20.007217   1.000000   1.000000
     60        -20.007001      -20.007066   1.000000   1.000000
     61        -20.004791      -20.004805   1.000000   1.000000
     62        -20.004765      -20.004750   1.000000   1.000000
     63        -19.999419      -19.999420   1.000000   1.000000
     64        -19.990110      -19.990393   1.000000   1.000000
     65        -19.990055      -19.989785   1.000000   1.000000
     66        -19.988396      -19.988367   1.000000   1.000000
     67        -19.976873      -19.976873   1.000000   1.000000
     68        -19.972728      -19.972627   1.000000   1.000000
     69        -19.972283      -19.972355   1.000000   1.000000
     70        -19.954536      -19.954526   1.000000   1.000000
     71        -19.925948      -19.925973   1.000000   1.000000
     72        -19.925405      -19.925361   1.000000   1.000000
     73        -19.919586      -19.919602   1.000000   1.000000
     74        -19.919418      -19.919391   1.000000   1.000000
     75        -19.917560      -19.917560   1.000000   1.000000
     76        -19.907446      -19.907437   1.000000   1.000000
     77        -19.907161      -19.907170   1.000000   1.000000
     78        -19.903491      -19.903484   1.000000   1.000000
     79        -19.896439      -19.896438   1.000000   1.000000
     80        -19.887740      -19.887727   1.000000   1.000000
     81        -19.887390      -19.887398   1.000000   1.000000
     82        -19.881311      -19.881308   1.000000   1.000000
     83        -19.865030      -19.865057   1.000000   1.000000
     84        -19.864824      -19.864797   1.000000   1.000000
     85        -19.860631      -19.860580   1.000000   1.000000
     86        -19.860361      -19.860408   1.000000   1.000000
     87        -19.848591      -19.848590   1.000000   1.000000
     88        -19.845991      -19.845997   1.000000   1.000000
     89        -19.845915      -19.845906   1.000000   1.000000
     90        -19.843267      -19.843266   1.000000   1.000000
     91        -19.804712      -19.804710   1.000000   1.000000
     92        -19.794298      -19.794310   1.000000   1.000000
     93        -19.794096      -19.794073   1.000000   1.000000
     94        -19.781730      -19.781728   1.000000   1.000000
     95        -19.764083      -19.764103   1.000000   1.000000
     96        -19.763934      -19.763913   1.000000   1.000000
     97        -19.759113      -19.759106   1.000000   1.000000
     98        -19.759057      -19.759062   1.000000   1.000000
     99        -19.757352      -19.757351   1.000000   1.000000
    100         -8.197462       -8.198705   1.000000   1.000000
    101         -8.189863       -8.190463   1.000000   1.000000
    102         -8.185909       -8.181338   1.000000   1.000000
    103         -8.172701       -8.174719   1.000000   1.000000
    104         -8.145030       -8.144634   1.000000   1.000000
    105         -8.133795       -8.130161   1.000000   1.000000
    106         -8.120113       -8.120263   1.000000   1.000000
    107         -8.108994       -8.113688   1.000000   1.000000
    108         -8.107390       -8.104079   1.000000   1.000000
    109         -8.098403       -8.096714   1.000000   1.000000
    110         -8.093953       -8.096462   1.000000   1.000000
    111         -8.074793       -8.076191   1.000000   1.000000
    112         -8.073190       -8.072211   1.000000   1.000000
    113         -8.046007       -8.045875   1.000000   1.000000
    114         -8.045487       -8.044141   1.000000   1.000000
    115         -8.041513       -8.043155   1.000000   1.000000
    116         -8.040007       -8.039719   1.000000   1.000000
    117         -8.024336       -8.023515   1.000000   1.000000
    118         -8.016309       -8.018438   1.000000   1.000000
    119         -7.998085       -7.998120   1.000000   1.000000
    120         -7.990080       -7.990535   1.000000   1.000000
    121         -7.989190       -7.989079   1.000000   1.000000
    122         -7.984932       -7.984413   1.000000   1.000000
    123         -7.974595       -7.974228   1.000000   1.000000
    124         -7.964557       -7.963620   1.000000   1.000000
    125         -7.958665       -7.959424   1.000000   1.000000
    126         -7.941357       -7.940723   1.000000   1.000000
    127         -7.929827       -7.929869   1.000000   1.000000
    128         -7.919896       -7.917890   1.000000   1.000000
    129         -7.914557       -7.916525   1.000000   1.000000
    130         -7.903471       -7.904455   1.000000   1.000000
    131         -7.900777       -7.900352   1.000000   1.000000
    132         -7.889762       -7.890670   1.000000   1.000000
    133         -7.863565       -7.863621   1.000000   1.000000
    134         -7.858512       -7.858776   1.000000   1.000000
    135         -7.852167       -7.852456   1.000000   1.000000
    136         -7.848139       -7.847497   1.000000   1.000000
    137         -7.844972       -7.845504   1.000000   1.000000
    138         -7.844405       -7.843796   1.000000   1.000000
    139         -7.825848       -7.825993   1.000000   1.000000
    140         -7.823831       -7.821705   1.000000   1.000000
    141         -7.817488       -7.819818   1.000000   1.000000
    142         -7.810651       -7.810951   1.000000   1.000000
    143         -7.809248       -7.807633   1.000000   1.000000
    144         -7.805544       -7.806907   1.000000   1.000000
    145         -7.798528       -7.798360   1.000000   1.000000
    146         -7.777999       -7.776945   1.000000   1.000000
    147         -7.775190       -7.776079   1.000000   1.000000
    148         -7.763700       -7.762824   1.000000   1.000000
    149         -7.761673       -7.762680   1.000000   1.000000
    150         -7.757736       -7.757815   1.000000   1.000000
    151         -7.757466       -7.757372   1.000000   1.000000
    152         -7.754828       -7.754864   1.000000   1.000000
    153         -7.742860       -7.742818   1.000000   1.000000
    154         -7.742271       -7.742510   1.000000   1.000000
    155         -7.740519       -7.740538   1.000000   1.000000
    156         -7.740031       -7.739847   1.000000   1.000000
    157         -7.729464       -7.729508   1.000000   1.000000
    158         -7.727101       -7.727284   1.000000   1.000000
    159         -7.727026       -7.726798   1.000000   1.000000
    160         -7.720468       -7.720422   1.000000   1.000000
    161         -7.719030       -7.719051   1.000000   1.000000
    162         -7.707314       -7.707106   1.000000   1.000000
    163         -7.706693       -7.706956   1.000000   1.000000
    164         -7.703201       -7.703057   1.000000   1.000000
    165         -7.702581       -7.702685   1.000000   1.000000
    166         -7.698775       -7.698753   1.000000   1.000000
    167         -7.697785       -7.697612   1.000000   1.000000
    168         -7.696691       -7.696878   1.000000   1.000000
    169         -7.695465       -7.695487   1.000000   1.000000
    170         -7.682809       -7.682819   1.000000   1.000000
    171         -7.676510       -7.676937   1.000000   1.000000
    172         -7.676425       -7.675941   1.000000   1.000000
    173         -7.674826       -7.674761   1.000000   1.000000
    174         -7.673963       -7.674087   1.000000   1.000000
    175         -7.668443       -7.668413   1.000000   1.000000
    176         -7.663214       -7.662960   1.000000   1.000000
    177         -7.662581       -7.662840   1.000000   1.000000
    178         -7.655021       -7.654758   1.000000   1.000000
    179         -7.654404       -7.654659   1.000000   1.000000
    180         -7.649757       -7.649459   1.000000   1.000000
    181         -7.649150       -7.649425   1.000000   1.000000
    182         -7.645890       -7.645908   1.000000   1.000000
    183         -7.642781       -7.642215   1.000000   1.000000
    184         -7.638290       -7.638699   1.000000   1.000000
    185         -7.635392       -7.635475   1.000000   1.000000
    186         -7.628308       -7.628146   1.000000   1.000000
    187         -7.625295       -7.625033   1.000000   1.000000
    188         -7.624120       -7.624841   1.000000   1.000000
    189         -7.612056       -7.611984   1.000000   1.000000
    190         -7.611740       -7.611815   1.000000   1.000000
    191         -7.608494       -7.608415   1.000000   1.000000
    192         -7.599139       -7.599177   1.000000   1.000000
    193         -7.598497       -7.598466   1.000000   1.000000
    194         -7.591123       -7.591240   1.000000   1.000000
    195         -7.590824       -7.590680   1.000000   1.000000
    196         -7.589749       -7.589731   1.000000   1.000000
    197         -7.583712       -7.583702   1.000000   1.000000
    198         -7.582880       -7.582646   1.000000   1.000000
    199         -7.581258       -7.581463   1.000000   1.000000
    200         -7.576314       -7.576317   1.000000   1.000000
    201         -7.574569       -7.574579   1.000000   1.000000
    202         -7.574085       -7.574100   1.000000   1.000000
    203         -7.569522       -7.569749   1.000000   1.000000
    204         -7.568944       -7.568589   1.000000   1.000000
    205         -7.567339       -7.567350   1.000000   1.000000
    206         -7.566698       -7.566776   1.000000   1.000000
    207         -7.563532       -7.563662   1.000000   1.000000
    208         -7.560662       -7.560669   1.000000   1.000000
    209         -7.560600       -7.560548   1.000000   1.000000
    210         -7.557063       -7.557069   1.000000   1.000000
    211         -7.556721       -7.556463   1.000000   1.000000
    212         -7.555892       -7.556146   1.000000   1.000000
    213         -7.554642       -7.554692   1.000000   1.000000
    214         -7.554555       -7.554514   1.000000   1.000000
    215         -7.543084       -7.543088   1.000000   1.000000
    216         -7.536466       -7.536376   1.000000   1.000000
    217         -7.535425       -7.535560   1.000000   1.000000
    218         -7.534626       -7.534621   1.000000   1.000000
    219         -7.528352       -7.528354   1.000000   1.000000
    220         -7.518210       -7.518332   1.000000   1.000000
    221         -7.517426       -7.517333   1.000000   1.000000
    222         -7.515312       -7.515488   1.000000   1.000000
    223         -7.514028       -7.513839   1.000000   1.000000
    224         -7.508826       -7.508820   1.000000   1.000000
    225         -7.505145       -7.505047   1.000000   1.000000
    226         -7.504193       -7.504224   1.000000   1.000000
    227         -7.503340       -7.502773   1.000000   1.000000
    228         -7.501757       -7.502339   1.000000   1.000000
    229         -7.499439       -7.499504   1.000000   1.000000
    230         -7.490900       -7.490906   1.000000   1.000000
    231         -7.485914       -7.486008   1.000000   1.000000
    232         -7.484964       -7.484722   1.000000   1.000000
    233         -7.484533       -7.484660   1.000000   1.000000
    234         -7.478802       -7.478819   1.000000   1.000000
    235         -7.477624       -7.477993   1.000000   1.000000
    236         -7.476985       -7.476607   1.000000   1.000000
    237         -7.469121       -7.468953   1.000000   1.000000
    238         -7.468438       -7.468609   1.000000   1.000000
    239         -7.466343       -7.466342   1.000000   1.000000
    240         -7.462692       -7.462686   1.000000   1.000000
    241         -7.459226       -7.459242   1.000000   1.000000
    242         -7.458854       -7.458837   1.000000   1.000000
    243         -7.448448       -7.448442   1.000000   1.000000
    244         -7.445302       -7.445147   1.000000   1.000000
    245         -7.444985       -7.445109   1.000000   1.000000
    246         -7.441976       -7.441520   1.000000   1.000000
    247         -7.441034       -7.441254   1.000000   1.000000
    248         -7.440697       -7.440947   1.000000   1.000000
    249         -7.438228       -7.438266   1.000000   1.000000
    250         -7.425449       -7.425554   1.000000   1.000000
    251         -7.425434       -7.425346   1.000000   1.000000
    252         -7.419511       -7.419568   1.000000   1.000000
    253         -7.419185       -7.419198   1.000000   1.000000
    254         -7.418375       -7.418383   1.000000   1.000000
    255         -7.411608       -7.411580   1.000000   1.000000
    256         -7.408823       -7.408820   1.000000   1.000000
    257         -7.404586       -7.404320   1.000000   1.000000
    258         -7.403417       -7.403706   1.000000   1.000000
    259         -7.398305       -7.398302   1.000000   1.000000
    260         -7.395497       -7.395496   1.000000   1.000000
    261         -7.381354       -7.381347   1.000000   1.000000
    262         -7.376954       -7.377093   1.000000   1.000000
    263         -7.376535       -7.376412   1.000000   1.000000
    264         -7.372453       -7.372683   1.000000   1.000000
    265         -7.372161       -7.371936   1.000000   1.000000
    266         -7.367038       -7.367033   1.000000   1.000000
    267         -7.363842       -7.363838   1.000000   1.000000
    268         -7.360020       -7.360094   1.000000   1.000000
    269         -7.358755       -7.358682   1.000000   1.000000
    270         -7.353590       -7.353581   1.000000   1.000000
    271         -7.352983       -7.353005   1.000000   1.000000
    272         -7.346334       -7.346320   1.000000   1.000000
    273         -7.345896       -7.346145   1.000000   1.000000
    274         -7.345513       -7.345404   1.000000   1.000000
    275         -7.344722       -7.344650   1.000000   1.000000
    276         -7.340422       -7.340489   1.000000   1.000000
    277         -7.339865       -7.339841   1.000000   1.000000
    278         -7.338927       -7.338928   1.000000   1.000000
    279         -7.332506       -7.332334   1.000000   1.000000
    280         -7.331655       -7.331691   1.000000   1.000000
    281         -7.329703       -7.329760   1.000000   1.000000
    282         -7.329109       -7.329130   1.000000   1.000000
    283         -7.325273       -7.325171   1.000000   1.000000
    284         -7.324975       -7.325113   1.000000   1.000000
    285         -7.314304       -7.314298   1.000000   1.000000
    286         -7.312946       -7.312907   1.000000   1.000000
    287         -7.312741       -7.312762   1.000000   1.000000
    288         -7.312179       -7.312302   1.000000   1.000000
    289         -7.312053       -7.311885   1.000000   1.000000
    290         -7.306439       -7.306472   1.000000   1.000000
    291         -7.305201       -7.305201   1.000000   1.000000
    292         -7.305083       -7.305110   1.000000   1.000000
    293         -7.303502       -7.303477   1.000000   1.000000
    294         -7.294221       -7.294108   1.000000   1.000000
    295         -7.293287       -7.293328   1.000000   1.000000
    296         -7.291352       -7.291351   1.000000   1.000000
    297         -7.287699       -7.287746   1.000000   1.000000
    298         -7.281175       -7.281173   1.000000   1.000000
    299         -7.281016       -7.281022   1.000000   1.000000
    300         -7.272406       -7.272957   1.000000   1.000000
    301         -7.272012       -7.271484   1.000000   1.000000
    302         -7.270166       -7.270157   1.000000   1.000000
    303         -7.261775       -7.261781   1.000000   1.000000
    304         -7.250984       -7.250968   1.000000   1.000000
    305         -7.248094       -7.247994   1.000000   1.000000
    306         -7.247839       -7.247913   1.000000   1.000000
    307         -7.245785       -7.245864   1.000000   1.000000
    308         -7.245764       -7.245698   1.000000   1.000000
    309         -7.242312       -7.242304   1.000000   1.000000
    310         -7.242128       -7.242135   1.000000   1.000000
    311         -7.230947       -7.230982   1.000000   1.000000
    312         -7.230593       -7.230658   1.000000   1.000000
    313         -7.230476       -7.230398   1.000000   1.000000
    314         -7.222882       -7.222705   1.000000   1.000000
    315         -7.222458       -7.222628   1.000000   1.000000
    316         -7.220525       -7.220524   1.000000   1.000000
    317         -7.213848       -7.213655   1.000000   1.000000
    318         -7.213298       -7.213501   1.000000   1.000000
    319         -7.212126       -7.212126   1.000000   1.000000
    320         -7.204209       -7.204204   1.000000   1.000000
    321         -7.200051       -7.200155   1.000000   1.000000
    322         -7.199979       -7.199905   1.000000   1.000000
    323         -7.198646       -7.198638   1.000000   1.000000
    324         -7.189276       -7.189292   1.000000   1.000000
    325         -7.188554       -7.188531   1.000000   1.000000
    326         -7.176510       -7.176536   1.000000   1.000000
    327         -7.176114       -7.176082   1.000000   1.000000
    328         -7.174058       -7.174055   1.000000   1.000000
    329         -7.171639       -7.171638   1.000000   1.000000
    330         -7.163987       -7.164182   1.000000   1.000000
    331         -7.163550       -7.163334   1.000000   1.000000
    332         -7.155096       -7.155101   1.000000   1.000000
    333         -7.144313       -7.144317   1.000000   1.000000
    334         -7.142698       -7.142522   1.000000   1.000000
    335         -7.142157       -7.142333   1.000000   1.000000
    336         -7.140591       -7.140579   1.000000   1.000000
    337         -7.133784       -7.133773   1.000000   1.000000
    338         -7.132359       -7.131924   1.000000   1.000000
    339         -7.129680       -7.130105   1.000000   1.000000
    340         -7.124832       -7.124915   1.000000   1.000000
    341         -7.124448       -7.124405   1.000000   1.000000
    342         -7.109460       -7.109538   1.000000   1.000000
    343         -7.108964       -7.108873   1.000000   1.000000
    344         -7.091351       -7.090985   1.000000   1.000000
    345         -7.089634       -7.089803   1.000000   1.000000
    346         -7.089199       -7.089433   1.000000   1.000000
    347         -7.085885       -7.085886   1.000000   1.000000
    348         -7.082078       -7.082037   1.000000   1.000000
    349         -7.081899       -7.081938   1.000000   1.000000
    350         -7.077415       -7.077510   1.000000   1.000000
    351         -7.077326       -7.077244   1.000000   1.000000
    352         -7.076160       -7.076164   1.000000   1.000000
    353         -7.075664       -7.075665   1.000000   1.000000
    354         -7.066498       -7.066397   1.000000   1.000000
    355         -7.066136       -7.066248   1.000000   1.000000
    356         -7.048385       -7.048109   1.000000   1.000000
    357         -7.047864       -7.048058   1.000000   1.000000
    358         -7.044855       -7.044868   1.000000   1.000000
    359         -7.043700       -7.043330   1.000000   1.000000
    360         -7.043336       -7.043302   1.000000   1.000000
    361         -7.042711       -7.043118   1.000000   1.000000
    362         -7.039231       -7.039233   1.000000   1.000000
    363         -7.038797       -7.038858   1.000000   1.000000
    364         -7.012827       -7.012823   1.000000   1.000000
    365         -7.002270       -7.002272   1.000000   1.000000
    366         -6.999442       -6.999831   1.000000   1.000000
    367         -6.998862       -6.998765   1.000000   1.000000
    368         -6.998585       -6.998456   1.000000   1.000000
    369         -6.994593       -6.994782   1.000000   1.000000
    370         -6.993511       -6.993218   1.000000   1.000000
    371         -6.981381       -6.981196   1.000000   1.000000
    372         -6.980404       -6.980500   1.000000   1.000000
    373         -6.974329       -6.974325   1.000000   1.000000
    374         -6.974200       -6.974230   1.000000   1.000000
    375         -6.963554       -6.963519   1.000000   1.000000
    376         -6.961004       -6.961274   1.000000   1.000000
    377         -6.960924       -6.960686   1.000000   1.000000
    378         -6.951405       -6.951397   1.000000   1.000000
    379         -6.943875       -6.943736   1.000000   1.000000
    380         -6.943464       -6.943574   1.000000   1.000000
    381         -6.936510       -6.936525   1.000000   1.000000
    382         -6.936311       -6.936455   1.000000   1.000000
    383         -6.935695       -6.935551   1.000000   1.000000
    384         -6.917984       -6.918104   1.000000   1.000000
    385         -6.917095       -6.916926   1.000000   1.000000
    386         -6.915823       -6.915800   1.000000   1.000000
    387         -6.909809       -6.909830   1.000000   1.000000
    388         -6.908898       -6.909256   1.000000   1.000000
    389         -6.908629       -6.908349   1.000000   1.000000
    390         -6.889432       -6.889426   1.000000   1.000000
    391         -6.881321       -6.881346   1.000000   1.000000
    392         -6.881269       -6.881248   1.000000   1.000000
    393         -6.879363       -6.879367   1.000000   1.000000
    394         -6.879180       -6.879174   1.000000   1.000000
    395         -6.877272       -6.877282   1.000000   1.000000
    396         -6.873086       -6.872935   1.000000   1.000000
    397         -6.870311       -6.870396   1.000000   1.000000
    398         -6.849767       -6.849775   1.000000   1.000000
    399         -6.846281       -6.846270   1.000000   1.000000
    400         -6.846151       -6.846169   1.000000   1.000000
    401         -6.838099       -6.838092   1.000000   1.000000
    402         -6.829040       -6.829030   1.000000   1.000000
    403         -6.825608       -6.825634   1.000000   1.000000
    404         -6.823660       -6.823914   1.000000   1.000000
    405         -6.823143       -6.822906   1.000000   1.000000
    406         -6.812527       -6.812525   1.000000   1.000000
    407         -6.809589       -6.809297   1.000000   1.000000
    408         -6.808093       -6.808422   1.000000   1.000000
    409         -6.803144       -6.803264   1.000000   1.000000
    410         -6.803133       -6.803002   1.000000   1.000000
    411         -6.789300       -6.789312   1.000000   1.000000
    412         -6.777186       -6.777355   1.000000   1.000000
    413         -6.776672       -6.776526   1.000000   1.000000
    414         -6.774070       -6.774132   1.000000   1.000000
    415         -6.773819       -6.773826   1.000000   1.000000
    416         -6.773553       -6.773457   1.000000   1.000000
    417         -6.763924       -6.763951   1.000000   1.000000
    418         -6.763809       -6.763778   1.000000   1.000000
    419         -6.759959       -6.759953   1.000000   1.000000
    420         -6.756314       -6.756270   1.000000   1.000000
    421         -6.756186       -6.756230   1.000000   1.000000
    422         -6.748263       -6.748261   1.000000   1.000000
    423         -6.737495       -6.737435   1.000000   1.000000
    424         -6.736654       -6.736678   1.000000   1.000000
    425         -6.736432       -6.736448   1.000000   1.000000
    426         -6.724128       -6.724131   1.000000   1.000000
    427         -6.718571       -6.718767   1.000000   1.000000
    428         -6.718189       -6.717995   1.000000   1.000000
    429         -6.714026       -6.714037   1.000000   1.000000
    430         -6.709596       -6.709580   1.000000   1.000000
    431         -6.708943       -6.708866   1.000000   1.000000
    432         -6.708601       -6.708702   1.000000   1.000000
    433         -6.707669       -6.707659   1.000000   1.000000
    434         -6.707494       -6.707482   1.000000   1.000000
    435         -6.692436       -6.692267   1.000000   1.000000
    436         -6.691958       -6.692085   1.000000   1.000000
    437         -6.691867       -6.691901   1.000000   1.000000
    438         -6.680987       -6.680910   1.000000   1.000000
    439         -6.680264       -6.680347   1.000000   1.000000
    440         -6.670896       -6.671041   1.000000   1.000000
    441         -6.670172       -6.670035   1.000000   1.000000
    442         -6.669805       -6.669805   1.000000   1.000000
    443         -6.668410       -6.668399   1.000000   1.000000
    444         -6.661189       -6.661188   1.000000   1.000000
    445         -6.660132       -6.660157   1.000000   1.000000
    446         -6.659959       -6.659725   1.000000   1.000000
    447         -6.659499       -6.659699   1.000000   1.000000
    448         -6.656926       -6.656949   1.000000   1.000000
    449         -6.656906       -6.656883   1.000000   1.000000
    450         -6.654726       -6.654727   1.000000   1.000000
    451         -6.650915       -6.651027   1.000000   1.000000
    452         -6.650733       -6.650638   1.000000   1.000000
    453         -6.645836       -6.645837   1.000000   1.000000
    454         -6.641649       -6.641700   1.000000   1.000000
    455         -6.641429       -6.641387   1.000000   1.000000
    456         -6.640244       -6.640254   1.000000   1.000000
    457         -6.639225       -6.639133   1.000000   1.000000
    458         -6.638385       -6.638466   1.000000   1.000000
    459         -6.634219       -6.634224   1.000000   1.000000
    460         -6.627996       -6.627816   1.000000   1.000000
    461         -6.627638       -6.627809   1.000000   1.000000
    462         -6.625401       -6.625406   1.000000   1.000000
    463         -6.617981       -6.617981   1.000000   1.000000
    464         -6.604617       -6.604534   1.000000   1.000000