       N       E                     dE             d eps       ncg     rms          ort
SDA:   1    -0.122327941918E+04   -0.12233E+04   -0.77756E-03  1056   0.259E-02 0.000E+00
DMP:   2    -0.122328001140E+04   -0.59222E-03   -0.48203E-03  1056   0.101E-02 0.135E-02
DMP:   3    -0.122328038137E+04   -0.36998E-03   -0.31018E-03  1056   0.655E-03 0.859E-03
DMP:   4    -0.122328064415E+04   -0.26278E-03   -0.21578E-03  1056   0.401E-03 0.720E-03
DMP:   5    -0.122328082360E+04   -0.17945E-03   -0.12065E-03  1056   0.191E-03 0.479E-03
DMP:   6    -0.122328092249E+04   -0.98893E-04   -0.63925E-04  1056   0.992E-04 0.258E-03
DMP:   7    -0.122328097616E+04   -0.53663E-04   -0.35669E-04  1056   0.549E-04 0.145E-03
DMP:   8    -0.122328100601E+04   -0.29848E-04   -0.18499E-04  1056   0.262E-04 0.802E-04
DMP:   9    -0.122328102135E+04   -0.15343E-04   -0.93644E-05  1056   0.132E-04 0.408E-04
DMP:  10    -0.122328102921E+04   -0.78639E-05   -0.49198E-05  1056   0.696E-05 0.214E-04
DMP:  11    -0.122328103336E+04   -0.41429E-05   -0.25227E-05  1056   0.344E-05 0.113E-04
DMP:  12    -0.122328103547E+04   -0.21115E-05   -0.12813E-05  1056   0.175E-05 0.572E-05
DMP:  13    -0.122328103654E+04   -0.10717E-05   -0.66962E-06  1056   0.934E-06 0.294E-05
DMP:  14    -0.122328103709E+04   -0.55569E-06   -0.35116E-06  1056   0.505E-06 0.151E-05
   1 F= -.12232810E+04 E0= -.12232810E+04  d E =-.122328E+04  mag=     0.0000
       N       E                     dE             d eps       ncg     rms          ort
SDA:   1    -0.122327408964E+04    0.69469E-02   -0.50648E-02  1056   0.169E-01 0.000E+00
DMP:   2    -0.122327799441E+04   -0.39048E-02   -0.30673E-02  1056   0.618E-02 0.915E-02
DMP:   3    -0.122328014845E+04   -0.21540E-02   -0.11592E-02  1056   0.204E-02 0.413E-02
DMP:   4    -0.122328089766E+04   -0.74921E-03   -0.33167E-03  1056   0.606E-03 0.113E-02
DMP:   5    -0.122328107313E+04   -0.17547E-03   -0.75617E-04  1056   0.223E-03 0.652E-04
DMP:   6    -0.122328110124E+04   -0.28113E-04   -0.31162E-04  1056   0.132E-03-0.635E-04
DMP:   7    -0.122328111782E+04   -0.16581E-04   -0.26464E-04  1056   0.851E-04 0.716E-05
DMP:   8    -0.122328113629E+04   -0.18469E-04   -0.16999E-04  1056   0.412E-04 0.351E-04
DMP:   9    -0.122328114816E+04   -0.11870E-04   -0.80619E-05  1056   0.169E-04 0.227E-04
DMP:  10    -0.122328115365E+04   -0.54857E-05   -0.33089E-05  1056   0.671E-05 0.978E-05
DMP:  11    -0.122328115582E+04   -0.21704E-05   -0.12460E-05  1056   0.267E-05 0.337E-05
DMP:  12    -0.122328115662E+04   -0.79902E-06   -0.51478E-06  1056   0.124E-05 0.108E-05
   2 F= -.12232812E+04 E0= -.12232812E+04  d E =-.119521E-03  mag=     0.0000
       N       E                     dE             d eps       ncg     rms          ort
SDA:   1    -0.122328114948E+04    0.63322E-05   -0.51898E-05  1056   0.173E-04 0.000E+00
DMP:   2    -0.122328115341E+04   -0.39222E-05   -0.30592E-05  1056   0.627E-05 0.889E-05
DMP:   3    -0.122328115554E+04   -0.21310E-05   -0.12113E-05  1056   0.225E-05 0.406E-05
DMP:   4    -0.122328115631E+04   -0.77365E-06   -0.34757E-06  1056   0.661E-06 0.113E-05
   3 F= -.12232812E+04 E0= -.12232812E+04  d E =-.119217E-03  mag=     0.0000
       N       E                     dE             d eps       ncg     rms          ort
SDA:   1    -0.122328115304E+04    0.24976E-05   -0.29632E-05  1056   0.988E-05 0.000E+00
DMP:   2    -0.122328115536E+04   -0.23228E-05   -0.17724E-05  1056   0.350E-05 0.546E-05
DMP:   3    -0.122328115660E+04   -0.12323E-05   -0.62028E-06  1056   0.107E-05 0.227E-05
DMP:   4    -0.122328115699E+04   -0.39018E-06   -0.19366E-06  1056   0.389E-06 0.581E-06
   4 F= -.12232812E+04 E0= -.12232812E+04  d E =-.119891E-03  mag=     0.0000
       N       E                     dE             d eps       ncg     rms          ort
SDA:   1    -0.122328115691E+04   -0.31319E-06   -0.26980E-06  1056   0.899E-06 0.000E+00
DMP:   2    -0.122328115710E+04   -0.18954E-06   -0.15949E-06  1056   0.338E-06 0.439E-06
DMP:   3    -0.122328115722E+04   -0.11924E-06   -0.75493E-07  1056   0.141E-06 0.250E-06
DMP:   4    -0.122328115727E+04   -0.56505E-07   -0.22705E-07  1056   0.340E-07 0.944E-07
   5 F= -.12232812E+04 E0= -.12232812E+04  d E =-.120179E-03  mag=     0.0000
       N       E                     dE             d eps       ncg     rms          ort
SDA:   1    -0.122327716218E+04    0.39950E-02   -0.26713E-02  1056   0.890E-02 0.000E+00
DMP:   2    -0.122327930885E+04   -0.21467E-02   -0.18016E-02  1056   0.362E-02 0.541E-02
DMP:   3    -0.122328060578E+04   -0.12969E-02   -0.69369E-03  1056   0.115E-02 0.264E-02
DMP:   4    -0.122328106842E+04   -0.46264E-03   -0.20724E-03  1056   0.350E-03 0.772E-03
DMP:   5    -0.122328118370E+04   -0.11528E-03   -0.38292E-04  1056   0.935E-04 0.774E-04
DMP:   6    -0.122328119519E+04   -0.11490E-04   -0.12736E-04  1056   0.652E-04-0.515E-04
DMP:   7    -0.122328120162E+04   -0.64326E-05   -0.14183E-04  1056   0.473E-04 0.446E-07
DMP:   8    -0.122328121185E+04   -0.10225E-04   -0.95734E-05  1056   0.227E-04 0.208E-04
DMP:   9    -0.122328121872E+04   -0.68695E-05   -0.47307E-05  1056   0.958E-05 0.140E-04
DMP:  10    -0.122328122206E+04   -0.33407E-05   -0.20481E-05  1056   0.391E-05 0.661E-05
DMP:  11    -0.122328122344E+04   -0.13816E-05   -0.75600E-06  1056   0.144E-05 0.244E-05
DMP:  12    -0.122328122392E+04   -0.47767E-06   -0.27550E-06  1056   0.615E-06 0.687E-06
   6 F= -.12232812E+04 E0= -.12232812E+04  d E =-.666449E-04  mag=     0.0000
