 vasp.6.4.2 20Jul23 (build Oct 07 2023 16:32:06) gamma-only                     
  
 executed on             bridges2 date 2024.10.24  14:51:23
 running  768 mpi-ranks, on    6 nodes
 distrk:  each k-point on  384 cores,    2 groups
 distr:  one band on NCORE=   8 cores,   48 groups


--------------------------------------------------------------------------------------------------------


 INCAR:
   SYSTEM = zno
   PREC = Normal
   ISTART = 1
   ICHARG = 1
   ISPIN = 2
   MAGMOM = 191*0.0
   NCORE = 8
   KPAR = 2
   NELECT = 1722
   ENCUT = 400
   NELM = 1000
   NELMIN = 4
   EDIFF = 1E-06
   LREAL = Auto
   EDIFFG = -1E-02
   NSW = 30
   IBRION = 2
   ISIF = 2
   ISYM = 3
   POTIM = 0.5
   ISMEAR = 0
   SIGMA = 0.005
   LWAVE = T
   LCHARG = T
   LVHAR = T
   LVTOT = F
   LELF = F
   LORBIT = 11
   ALGO = Damped
   TIME = 0.3
   LHFCALC = T
   HFSCREEN = 0.2
   AEXX = 0.375
   GGA = PE

 POTCAR:    PAW_PBE Zn 06Sep2000                  
 POTCAR:    PAW_PBE O 08Apr2002                   
 POTCAR:    PAW_PBE Mo_sv 02Feb2006               
 -----------------------------------------------------------------------------
|                                                                             |
|           W    W    AA    RRRRR   N    N  II  N    N   GGGG   !!!           |
|           W    W   A  A   R    R  NN   N  II  NN   N  G    G  !!!           |
|           W    W  A    A  R    R  N N  N  II  N N  N  G       !!!           |
|           W WW W  AAAAAA  RRRRR   N  N N  II  N  N N  G  GGG   !            |
|           WW  WW  A    A  R   R   N   NN  II  N   NN  G    G                |
|           W    W  A    A  R    R  N    N  II  N    N   GGGG   !!!           |
|                                                                             |
|     For optimal performance we recommend to set                             |
|       NCORE = 2 up to number-of-cores-per-socket                            |
|     NCORE specifies how many cores store one orbital (NPAR=cpu/NCORE).      |
|     This setting can greatly improve the performance of VASP for DFT.       |
|     The default, NCORE=1 might be grossly inefficient on modern             |
|     multi-core architectures or massively parallel machines. Do your        |
|     own testing! More info at https://www.vasp.at/wiki/index.php/NCORE      |
|     Unfortunately you need to use the default for GW and RPA                |
|     calculations (for HF NCORE is supported but not extensively tested      |
|     yet).                                                                   |
|                                                                             |
 -----------------------------------------------------------------------------

 POTCAR:    PAW_PBE Zn 06Sep2000                  
   SHA256 =  501fddbd8274dd8e9725d4f3de27861d7f1e553a7e18441bc79fed8f346e7f23 Zn/POTCAR             
   COPYR  = (c) Copyright 06Sep2000 Georg Kresse                                                    
   COPYR  = This file is part of the software VASP. Any use, copying, and all other rights are regul
   COPYR  = If you do not have a valid VASP license, you may not use, copy or distribute this file. 
   VRHFIN =Zn: d10 p2                                                                               
   LEXCH  = PE                                                                                      
   EATOM  =  1748.8345 eV,  128.5357 Ry                                                             
                                                                                                    
   TITEL  = PAW_PBE Zn 06Sep2000                                                                    
   LULTRA =        F    use ultrasoft PP ?                                                          
   IUNSCR =        1    unscreen: 0-lin 1-nonlin 2-no                                               
   RPACOR =    2.000    partial core radius                                                         
   POMASS =   65.390; ZVAL   =   12.000    mass and valenz                                          
   RCORE  =    2.300    outmost cutoff radius                                                       
   RWIGS  =    2.400; RWIGS  =    1.270    wigner-seitz radius (au A)                               
   ENMAX  =  276.723; ENMIN  =  207.542 eV                                                          
   RCLOC  =    1.828    cutoff for local pot                                                        
   LCOR   =        T    correct aug charges                                                         
   LPAW   =        T    paw PP                                                                      
   EAUG   =  575.892                                                                                
   DEXC   =    0.000                                                                                
   RMAX   =    2.347    core radius for proj-oper                                                   
   RAUG   =    1.300    factor for augmentation sphere                                              
   RDEP   =    2.324    radius for radial grids                                                     
   RDEPT  =    1.788    core radius for aug-charge                                                  
                                                                                                    
   Atomic configuration                                                                             
    9 entries                                                                                       
     n  l   j            E        occ.                                                              
     1  0  0.50     -9524.6913   2.0000                                                             
     2  0  0.50     -1158.1882   2.0000                                                             
     2  1  1.50     -1003.8506   6.0000                                                             
     3  0  0.50      -129.2194   2.0000                                                             
     3  1  1.50       -83.3890   6.0000                                                             
     3  2  2.50       -10.1410  10.0000                                                             
     4  0  0.50        -5.9785   2.0000                                                             
     4  1  0.50        -4.0817   0.0000                                                             
     4  3  2.50        -1.3606   0.0000                                                             
   Description                                                                                      
     l       E           TYP  RCUT    TYP  RCUT                                                     
     2    -10.1410010     23  2.300                                                                 
     2    -11.5015836     23  2.300                                                                 
     0     -5.9785163     23  2.300                                                                 
     0      1.1858015     23  2.300                                                                 
     1     -2.7211652     23  2.300                                                                 
     1     13.2444212     23  2.300                                                                 
  local pseudopotential read in
  partial core-charges read in
  partial kinetic energy density read in
  atomic valenz-charges read in
  non local Contribution for L=           2  read in
    real space projection operators read in
  non local Contribution for L=           2  read in
    real space projection operators read in
  non local Contribution for L=           0  read in
    real space projection operators read in
  non local Contribution for L=           0  read in
    real space projection operators read in
  non local Contribution for L=           1  read in
    real space projection operators read in
  non local Contribution for L=           1  read in
    real space projection operators read in
    PAW grid and wavefunctions read in
 
   number of l-projection  operators is LMAX  =           6
   number of lm-projection operators is LMMAX =          18
 
 POTCAR:    PAW_PBE O 08Apr2002                   
   SHA256 =  818f92134a0a090dccd8ba1447fa70422a3b330e708bb4f08108d8ae51209ddf O/POTCAR              
   COPYR  = (c) Copyright 08Apr2002 Georg Kresse                                                    
   COPYR  = This file is part of the software VASP. Any use, copying, and all other rights are regul
   COPYR  = If you do not have a valid VASP license, you may not use, copy or distribute this file. 
   VRHFIN =O: s2p4                                                                                  
   LEXCH  = PE                                                                                      
   EATOM  =   432.3788 eV,   31.7789 Ry                                                             
                                                                                                    
   TITEL  = PAW_PBE O 08Apr2002                                                                     
   LULTRA =        F    use ultrasoft PP ?                                                          
   IUNSCR =        1    unscreen: 0-lin 1-nonlin 2-no                                               
   RPACOR =    1.200    partial core radius                                                         
   POMASS =   16.000; ZVAL   =    6.000    mass and valenz                                          
   RCORE  =    1.520    outmost cutoff radius                                                       
   RWIGS  =    1.550; RWIGS  =    0.820    wigner-seitz radius (au A)                               
   ENMAX  =  400.000; ENMIN  =  300.000 eV                                                          
   ICORE  =        2    local potential                                                             
   LCOR   =        T    correct aug charges                                                         
   LPAW   =        T    paw PP                                                                      
   EAUG   =  605.392                                                                                
   DEXC   =    0.000                                                                                
   RMAX   =    1.553    core radius for proj-oper                                                   
   RAUG   =    1.300    factor for augmentation sphere                                              
   RDEP   =    1.550    radius for radial grids                                                     
   RDEPT  =    1.329    core radius for aug-charge                                                  
                                                                                                    
   Atomic configuration                                                                             
    4 entries                                                                                       
     n  l   j            E        occ.                                                              
     1  0  0.50      -514.6923   2.0000                                                             
     2  0  0.50       -23.9615   2.0000                                                             
     2  1  0.50        -9.0305   4.0000                                                             
     3  2  1.50        -9.5241   0.0000                                                             
   Description                                                                                      
     l       E           TYP  RCUT    TYP  RCUT                                                     
     0    -23.9615318     23  1.200                                                                 
     0     -9.5240782     23  1.200                                                                 
     1     -9.0304911     23  1.520                                                                 
     1      8.1634956     23  1.520                                                                 
     2     -9.5240782      7  1.500                                                                 
  local pseudopotential read in
  partial core-charges read in
  partial kinetic energy density read in
  kinetic energy density of atom read in
  atomic valenz-charges read in
  non local Contribution for L=           0  read in
    real space projection operators read in
  non local Contribution for L=           0  read in
    real space projection operators read in
  non local Contribution for L=           1  read in
    real space projection operators read in
  non local Contribution for L=           1  read in
    real space projection operators read in
    PAW grid and wavefunctions read in
 
   number of l-projection  operators is LMAX  =           4
   number of lm-projection operators is LMMAX =           8
 
 POTCAR:    PAW_PBE Mo_sv 02Feb2006               
   SHA256 =  2731df97e41766cc617548c5a8267718fdef1f509ac6bafa01e745abea2bdfaa Mo_sv/POTCAR          
   COPYR  = (c) Copyright 02Feb2006 Georg Kresse                                                    
   COPYR  = This file is part of the software VASP. Any use, copying, and all other rights are regul
   COPYR  = If you do not have a valid VASP license, you may not use, copy or distribute this file. 
   VRHFIN =Mo: 4p5s4d                                                                               
   LEXCH  = PE                                                                                      
   EATOM  =  1862.2866 eV,  136.8742 Ry                                                             
                                                                                                    
   TITEL  = PAW_PBE Mo_sv 02Feb2006                                                                 
   LULTRA =        F    use ultrasoft PP ?                                                          
   IUNSCR =        1    unscreen: 0-lin 1-nonlin 2-no                                               
   RPACOR =    2.200    partial core radius                                                         
   POMASS =   95.940; ZVAL   =   14.000    mass and valenz                                          
   RCORE  =    2.500    outmost cutoff radius                                                       
   RWIGS  =    2.750; RWIGS  =    1.455    wigner-seitz radius (au A)                               
   ENMAX  =  242.676; ENMIN  =  182.007 eV                                                          
   ICORE  =        3    local potential                                                             
   LCOR   =        T    correct aug charges                                                         
   LPAW   =        T    paw PP                                                                      
   EAUG   =  446.014                                                                                
   DEXC   =    0.000                                                                                
   RMAX   =    2.563    core radius for proj-oper                                                   
   RAUG   =    1.300    factor for augmentation sphere                                              
   RDEP   =    2.641    radius for radial grids                                                     
   RDEPT  =    2.031    core radius for aug-charge                                                  
                                                                                                    
   Atomic configuration                                                                             
   11 entries                                                                                       
     n  l   j            E        occ.                                                              
     1  0  0.50    -19819.0341   2.0000                                                             
     2  0  0.50     -2799.0127   2.0000                                                             
     2  1  1.50     -2502.0276   6.0000                                                             
     3  0  0.50      -476.4449   2.0000                                                             
     3  1  1.50      -379.1496   6.0000                                                             
     3  2  2.50      -220.9367  10.0000                                                             
     4  0  0.50       -64.3378   2.0000                                                             
     5  0  0.50        -4.0862   1.0000                                                             
     4  1  1.50       -38.4773   6.0000                                                             
     4  2  2.50        -3.7535   5.0000                                                             
     4  3  2.50        -1.3606   0.0000                                                             
   Description                                                                                      
     l       E           TYP  RCUT    TYP  RCUT                                                     
     0    -64.3377829     23  2.100                                                                 
     0     -4.0861640     23  2.400                                                                 
     1    -38.4772993     23  2.100                                                                 
     1     13.6058260     23  2.100                                                                 
     2     -3.7534941     23  2.400                                                                 
     2     -5.1140767     23  2.400                                                                 
     3     -4.0817478     23  2.500                                                                 
  local pseudopotential read in
  partial core-charges read in
  partial kinetic energy density read in
  atomic valenz-charges read in
  non local Contribution for L=           0  read in
    real space projection operators read in
  non local Contribution for L=           0  read in
    real space projection operators read in
  non local Contribution for L=           1  read in
    real space projection operators read in
  non local Contribution for L=           1  read in
    real space projection operators read in
  non local Contribution for L=           2  read in
    real space projection operators read in
  non local Contribution for L=           2  read in
    real space projection operators read in
    PAW grid and wavefunctions read in
 
   number of l-projection  operators is LMAX  =           6
   number of lm-projection operators is LMMAX =          18
 
 Optimization of the real space projectors (new method)

 maximal supplied QI-value         = 16.25
 optimisation between [QCUT,QGAM] = [ 10.24, 20.48] = [ 29.35,117.42] Ry 
 Optimized for a Real-space Cutoff    1.38 Angstroem

   l    n(q)    QCUT    max X(q) W(low)/X(q) W(high)/X(q)  e(spline) 
   2      7    10.239    46.356    0.21E-03    0.48E-03    0.10E-06
   2      7    10.239    41.843    0.21E-03    0.50E-03    0.10E-06
   0      8    10.239    48.958    0.37E-03    0.79E-04    0.11E-06
   0      8    10.239    32.776    0.35E-03    0.73E-04    0.10E-06
   1      8    10.239    17.787    0.49E-03    0.70E-03    0.14E-06
   1      8    10.239    14.435    0.42E-03    0.61E-03    0.13E-06
 Optimization of the real space projectors (new method)

 maximal supplied QI-value         = 24.76
 optimisation between [QCUT,QGAM] = [ 10.15, 20.30] = [ 28.85,115.39] Ry 
 Optimized for a Real-space Cutoff    1.38 Angstroem

   l    n(q)    QCUT    max X(q) W(low)/X(q) W(high)/X(q)  e(spline) 
   0      8    10.150    20.381    0.22E-03    0.32E-03    0.29E-06
   0      8    10.150    15.268    0.23E-03    0.35E-03    0.30E-06
   1      8    10.150     5.964    0.46E-03    0.53E-03    0.21E-06
   1      8    10.150     5.382    0.38E-03    0.45E-03    0.19E-06
 Optimization of the real space projectors (new method)

 maximal supplied QI-value         = 15.12
 optimisation between [QCUT,QGAM] = [ 10.13, 20.41] = [ 28.73,116.64] Ry 
 Optimized for a Real-space Cutoff    1.55 Angstroem

   l    n(q)    QCUT    max X(q) W(low)/X(q) W(high)/X(q)  e(spline) 
   0      9    10.129     3.559    0.15E-04    0.17E-04    0.57E-07
   0      9    10.129    20.730    0.48E-04    0.15E-04    0.66E-07
   1      9    10.129     3.279    0.16E-05    0.10E-04    0.27E-07
   1      9    10.129     4.693    0.32E-03    0.57E-04    0.21E-06
   2      9    10.129    67.616    0.48E-03    0.12E-03    0.44E-06
   2      9    10.129    62.420    0.48E-03    0.12E-03    0.45E-06
  PAW_PBE Zn 06Sep2000                  :
 energy of atom  1       EATOM=-1748.8345
 kinetic energy error for atom=    0.0107 (will be added to EATOM!!)
  PAW_PBE O 08Apr2002                   :
 energy of atom  2       EATOM= -432.3788
 kinetic energy error for atom=    0.1156 (will be added to EATOM!!)
  PAW_PBE Mo_sv 02Feb2006               :
 energy of atom  3       EATOM=-1862.2866
 kinetic energy error for atom=    0.0181 (will be added to EATOM!!)
 
 
 POSCAR:   Zn2 O2
  positions in direct lattice
  velocities in cartesian coordinates
 exchange correlation table for  LEXCH =        8
   RHO(1)=    0.500       N(1)  =     2000
   RHO(2)=  100.500       N(2)  =     4000
 


--------------------------------------------------------------------------------------------------------


 ion  position               nearest neighbor table
   1  0.167  0.083  0.165- 143 1.97 152 1.97 155 1.97  96 1.99
   2  0.167  0.083  0.500- 144 1.97  97 1.98 153 1.98 156 1.98
   3  0.167  0.083  0.834- 145 1.98  98 1.98 154 1.98 157 1.98
   4  0.166  0.333  0.166- 143 1.97 146 1.97 158 1.98  99 1.99
   5  0.165  0.332  0.500- 144 1.97 147 1.97 100 1.98 159 2.00
   6  0.166  0.333  0.834- 145 1.98 148 1.98 101 1.98 160 1.98
   7  0.167  0.583  0.165- 146 1.97 161 1.97 149 1.97 102 1.99
   8  0.167  0.583  0.500- 147 1.97 103 1.98 162 1.98 150 1.98
   9  0.167  0.583  0.834- 148 1.98 104 1.98 163 1.98 151 1.98
  10  0.167  0.833  0.165- 164 1.97 149 1.97 152 1.97 105 1.99
  11  0.168  0.834  0.500- 165 1.97 106 1.98 150 1.98 153 1.98
  12  0.167  0.833  0.834- 166 1.98 107 1.98 151 1.98 154 1.98
  13  0.417  0.083  0.165- 164 1.97 167 1.97 155 1.97 108 1.99
  14  0.416  0.082  0.500- 165 1.97 109 1.98 168 1.98 156 1.98
  15  0.417  0.083  0.834- 166 1.98 110 1.98 169 1.98 157 1.98
  16  0.415  0.332  0.166- 155 1.96 158 1.96 170 1.98 111 2.01
  17  0.407  0.327  0.502- 156 1.93 159 1.95 112 1.95 171 2.10
  18  0.418  0.334  0.833- 157 1.97 160 1.98 113 1.98 172 2.00
  19  0.415  0.583  0.166- 161 1.96 158 1.96 173 1.98 114 2.01
  20  0.407  0.580  0.502- 162 1.93 159 1.95 115 1.95 174 2.10
  21  0.418  0.584  0.833- 163 1.97 160 1.98 116 1.98 175 2.00
  22  0.417  0.833  0.165- 164 1.97 161 1.97 176 1.97 117 1.99
  23  0.416  0.834  0.500- 165 1.97 118 1.98 162 1.98 177 1.98
  24  0.417  0.833  0.834- 166 1.98 119 1.98 163 1.98 178 1.98
  25  0.667  0.083  0.165- 179 1.97 176 1.97 167 1.97 120 1.99
  26  0.667  0.083  0.500- 180 1.97 121 1.98 177 1.98 168 1.98
  27  0.667  0.083  0.834- 181 1.98 122 1.98 178 1.98 169 1.98
  28  0.667  0.332  0.166- 167 1.96 182 1.96 170 1.98 123 2.01
  29  0.670  0.327  0.502- 168 1.93 183 1.95 124 1.95 171 2.10
  30  0.666  0.334  0.833- 169 1.97 184 1.98 125 1.98 172 2.00
  31  0.667  0.583  0.167- 170 1.96 185 1.96 173 1.96 126 2.06
  32  0.667  0.583  0.835- 127 1.97 172 1.98 187 1.98 175 1.98
  33  0.667  0.835  0.166- 176 1.96 188 1.96 173 1.98 128 2.01
  34  0.670  0.843  0.502- 177 1.93 189 1.95 129 1.95 174 2.10
  35  0.666  0.832  0.833- 178 1.97 190 1.98 130 1.98 175 2.00
  36  0.917  0.084  0.166- 143 1.97 179 1.97 188 1.98 131 1.99
  37  0.918  0.085  0.500- 144 1.97 180 1.97 132 1.98 189 2.00
  38  0.917  0.084  0.834- 145 1.98 181 1.98 133 1.98 190 1.98
  39  0.917  0.333  0.166- 146 1.97 179 1.97 182 1.98 134 1.99
  40  0.918  0.332  0.500- 147 1.97 180 1.97 135 1.98 183 2.00
  41  0.917  0.333  0.834- 148 1.98 181 1.98 136 1.98 184 1.98
  42  0.918  0.583  0.166- 149 1.96 182 1.96 185 1.98 137 2.01
  43  0.923  0.580  0.502- 150 1.93 183 1.95 138 1.95 186 2.10
  44  0.916  0.584  0.833- 151 1.97 184 1.98 139 1.98 187 2.00
  45  0.918  0.835  0.166- 152 1.96 188 1.96 185 1.98 140 2.01
  46  0.923  0.843  0.502- 153 1.93 189 1.95 141 1.95 186 2.10
  47  0.916  0.832  0.833- 154 1.97 190 1.98 142 1.98 187 2.00
  48  0.083  0.167  1.000-  98 1.97 133 1.97 101 1.97 143 1.99
  49  0.083  0.167  0.332- 131 1.97  99 1.97  96 1.97 144 1.99
  50  0.083  0.167  0.667- 145 1.97 132 1.98 100 1.98  97 1.98
  51  0.083  0.417  1.000- 104 1.97 136 1.97 101 1.97 146 1.99
  52  0.083  0.417  0.332- 134 1.97  99 1.97 102 1.97 147 1.99
  53  0.083  0.417  0.667- 148 1.97 135 1.98 100 1.98 103 1.98
  54  0.083  0.667  1.000- 107 1.97 104 1.97 139 1.98 149 1.99
  55  0.085  0.667  0.332- 102 1.96 105 1.96 137 1.98 150 1.99
  56  0.084  0.667  0.668- 151 1.97 106 1.97 103 1.98 138 2.00
  57  0.083  0.917  1.000- 107 1.97  98 1.97 142 1.98 152 1.99
  58  0.085  0.918  0.332-  96 1.96 105 1.96 140 1.98 153 1.99
  59  0.084  0.917  0.668- 154 1.97 106 1.97  97 1.98 141 2.00
  60  0.333  0.167  1.000- 110 1.97  98 1.97 113 1.98 155 1.99
  61  0.332  0.165  0.332-  96 1.96 108 1.96 111 1.98 156 1.99
  62  0.333  0.166  0.668- 157 1.97 109 1.97  97 1.98 112 2.00
  63  0.333  0.417  1.000- 101 1.97 116 1.98 113 1.98 158 1.99
  64  0.332  0.416  0.332-  99 1.95 114 1.97 111 1.97 159 2.00
  65  0.332  0.416  0.669- 160 1.96 100 1.97 115 1.99 112 1.99
  66  0.333  0.667  1.000- 119 1.97 104 1.97 116 1.98 161 1.99
  67  0.332  0.667  0.332- 102 1.96 117 1.96 114 1.98 162 1.99
  68  0.333  0.667  0.668- 163 1.97 118 1.97 103 1.98 115 2.00
  69  0.333  0.917  1.000- 110 1.97 107 1.97 119 1.97 164 1.98
  70  0.333  0.917  0.332- 108 1.97 105 1.97 117 1.97 165 1.99
  71  0.333  0.917  0.667- 166 1.97 109 1.98 106 1.98 118 1.98
  72  0.583  0.167  1.000- 110 1.97 122 1.97 125 1.98 167 1.99
  73  0.583  0.165  0.332- 120 1.96 108 1.96 123 1.98 168 1.99
  74  0.583  0.166  0.668- 169 1.97 109 1.97 121 1.98 124 2.00
  75  0.583  0.417  0.001- 113 1.97 125 1.97 127 1.98 170 2.00
  76  0.582  0.414  0.327- 111 1.93 123 1.93 126 1.96 171 2.17
  77  0.585  0.420  0.664- 172 1.96 112 1.97 124 1.97 191 3.16
  78  0.583  0.667  0.001- 130 1.97 116 1.97 127 1.98 173 2.00
  79  0.582  0.668  0.327- 128 1.93 114 1.93 126 1.96 174 2.17
  80  0.585  0.665  0.664- 175 1.96 129 1.97 115 1.97 191 3.16
  81  0.583  0.917  1.000- 119 1.97 122 1.97 130 1.98 176 1.99
  82  0.583  0.918  0.332- 120 1.96 117 1.96 128 1.98 177 1.99
  83  0.583  0.917  0.668- 178 1.97 118 1.97 121 1.98 129 2.00
  84  0.833  0.167  1.000- 122 1.97 136 1.97 133 1.97 179 1.99
  85  0.833  0.167  0.332- 134 1.97 131 1.97 120 1.97 180 1.99
  86  0.833  0.167  0.667- 181 1.97 135 1.98 132 1.98 121 1.98
  87  0.833  0.417  1.000- 136 1.97 139 1.98 125 1.98 182 1.99
  88  0.834  0.416  0.332- 134 1.95 137 1.97 123 1.97 183 2.00
  89  0.834  0.416  0.669- 184 1.96 135 1.97 138 1.99 124 1.99
  90  0.833  0.667  0.001- 142 1.97 139 1.97 127 1.98 185 2.00
  91  0.836  0.668  0.327- 140 1.93 137 1.93 126 1.96 186 2.17
  92  0.830  0.665  0.664- 187 1.96 141 1.97 138 1.97 191 3.16
  93  0.833  0.917  1.000- 133 1.97 130 1.98 142 1.98 188 1.99
  94  0.834  0.918  0.332- 131 1.95 128 1.97 140 1.97 189 2.00
  95  0.834  0.918  0.669- 190 1.96 132 1.97 129 1.99 141 1.99
  96  0.167  0.083  0.293-  58 1.96  61 1.96  49 1.97   1 1.99
  97  0.167  0.083  0.626-   2 1.98  59 1.98  62 1.98  50 1.98
  98  0.167  0.083  0.960-  57 1.97  60 1.97  48 1.97   3 1.98
  99  0.166  0.333  0.293-  64 1.95  49 1.97  52 1.97   4 1.99
 100  0.167  0.334  0.626-  65 1.97   5 1.98  50 1.98  53 1.98
 101  0.167  0.333  0.960-  63 1.97  48 1.97  51 1.97   6 1.98
 102  0.167  0.583  0.293-  67 1.96  55 1.96  52 1.97   7 1.99
 103  0.167  0.584  0.626-   8 1.98  68 1.98  56 1.98  53 1.98
 104  0.167  0.583  0.960-  66 1.97  54 1.97  51 1.97   9 1.98
 105  0.167  0.833  0.293-  55 1.96  58 1.96  70 1.97  10 1.99
 106  0.166  0.833  0.627-  56 1.97  59 1.97  11 1.98  71 1.98
 107  0.167  0.833  0.961-  54 1.97  57 1.97  69 1.97  12 1.98
 108  0.417  0.083  0.293-  73 1.96  61 1.96  70 1.97  13 1.99
 109  0.417  0.084  0.627-  74 1.97  62 1.97  14 1.98  71 1.98
 110  0.417  0.083  0.961-  72 1.97  60 1.97  69 1.97  15 1.98
 111  0.416  0.333  0.295-  76 1.93  64 1.97  61 1.98  16 2.01
 112  0.418  0.335  0.627-  17 1.95  77 1.97  65 1.99  62 2.00
 113  0.418  0.334  0.960-  75 1.97  63 1.98  60 1.98  18 1.98
 114  0.416  0.583  0.295-  79 1.93  64 1.97  67 1.98  19 2.01
 115  0.418  0.583  0.627-  20 1.95  80 1.97  65 1.99  68 2.00
 116  0.418  0.584  0.960-  78 1.97  63 1.98  66 1.98  21 1.98
 117  0.417  0.833  0.293-  67 1.96  82 1.96  70 1.97  22 1.99
 118  0.417  0.833  0.627-  68 1.97  83 1.97  23 1.98  71 1.98
 119  0.417  0.833  0.961-  66 1.97  81 1.97  69 1.97  24 1.98
 120  0.667  0.083  0.293-  82 1.96  73 1.96  85 1.97  25 1.99
 121  0.666  0.083  0.626-  26 1.98  83 1.98  74 1.98  86 1.98
 122  0.667  0.083  0.960-  81 1.97  72 1.97  84 1.97  27 1.98
 123  0.667  0.333  0.295-  76 1.93  88 1.97  73 1.98  28 2.01
 124  0.667  0.335  0.627-  29 1.95  77 1.97  89 1.99  74 2.00
 125  0.666  0.334  0.960-  75 1.97  87 1.98  72 1.98  30 1.98
 126  0.667  0.583  0.299-  76 1.96  91 1.96  79 1.96  31 2.06
 127  0.667  0.583  0.961-  32 1.97  75 1.98  90 1.98  78 1.98
 128  0.667  0.834  0.295-  79 1.93  94 1.97  82 1.98  33 2.01
 129  0.667  0.832  0.627-  34 1.95  80 1.97  95 1.99  83 2.00
 130  0.666  0.832  0.960-  78 1.97  93 1.98  81 1.98  35 1.98
 131  0.917  0.084  0.293-  94 1.95  49 1.97  85 1.97  36 1.99
 132  0.916  0.083  0.626-  95 1.97  37 1.98  50 1.98  86 1.98
 133  0.917  0.083  0.960-  93 1.97  48 1.97  84 1.97  38 1.98
 134  0.917  0.333  0.293-  88 1.95  52 1.97  85 1.97  39 1.99
 135  0.916  0.334  0.626-  89 1.97  40 1.98  53 1.98  86 1.98
 136  0.917  0.333  0.960-  87 1.97  51 1.97  84 1.97  41 1.98
 137  0.917  0.583  0.295-  91 1.93  88 1.97  55 1.98  42 2.01
 138  0.915  0.583  0.627-  43 1.95  92 1.97  89 1.99  56 2.00
 139  0.916  0.584  0.960-  90 1.97  87 1.98  54 1.98  44 1.98
 140  0.917  0.834  0.295-  91 1.93  94 1.97  58 1.98  45 2.01
 141  0.915  0.832  0.627-  46 1.95  92 1.97  95 1.99  59 2.00
 142  0.916  0.832  0.960-  90 1.97  93 1.98  57 1.98  47 1.98
 143  0.083  0.167  0.127-  36 1.97   4 1.97   1 1.97  48 1.99
 144  0.084  0.166  0.460-  37 1.97   5 1.97   2 1.97  49 1.99
 145  0.083  0.167  0.793-  50 1.97   3 1.98  38 1.98   6 1.98
 146  0.083  0.417  0.127-  39 1.97   4 1.97   7 1.97  51 1.99
 147  0.084  0.417  0.460-  40 1.97   5 1.97   8 1.97  52 1.99
 148  0.083  0.417  0.793-  53 1.97   9 1.98  41 1.98   6 1.98
 149  0.083  0.667  0.127-  42 1.96   7 1.97  10 1.97  54 1.99
 150  0.084  0.667  0.459-  43 1.93  11 1.98   8 1.98  55 1.99
 151  0.083  0.667  0.794-  56 1.97  44 1.97  12 1.98   9 1.98
 152  0.083  0.917  0.127-  45 1.96   1 1.97  10 1.97  57 1.99
 153  0.084  0.916  0.459-  46 1.93  11 1.98   2 1.98  58 1.99
 154  0.083  0.916  0.794-  59 1.97  47 1.97  12 1.98   3 1.98
 155  0.333  0.167  0.127-  16 1.96   1 1.97  13 1.97  60 1.99
 156  0.334  0.166  0.459-  17 1.93  14 1.98   2 1.98  61 1.99
 157  0.334  0.167  0.794-  62 1.97  18 1.97  15 1.98   3 1.98
 158  0.333  0.417  0.127-  19 1.96  16 1.96   4 1.98  63 1.99
 159  0.334  0.417  0.460-  20 1.95  17 1.95  64 2.00   5 2.00
 160  0.334  0.417  0.794-  65 1.96  21 1.98  18 1.98   6 1.98
 161  0.333  0.667  0.127-  19 1.96   7 1.97  22 1.97  66 1.99
 162  0.334  0.667  0.459-  20 1.93  23 1.98   8 1.98  67 1.99
 163  0.334  0.667  0.794-  68 1.97  21 1.97  24 1.98   9 1.98
 164  0.333  0.917  0.127-  13 1.97  10 1.97  22 1.97  69 1.98
 165  0.333  0.917  0.459-  14 1.97  11 1.97  23 1.97  70 1.99
 166  0.333  0.917  0.794-  71 1.97  15 1.98  12 1.98  24 1.98
 167  0.583  0.167  0.127-  28 1.96  25 1.97  13 1.97  72 1.99
 168  0.583  0.166  0.459-  29 1.93  14 1.98  26 1.98  73 1.99
 169  0.583  0.167  0.794-  74 1.97  30 1.97  15 1.98  27 1.98
 170  0.583  0.417  0.130-  31 1.96  16 1.98  28 1.98  75 2.00
 171  0.586  0.423  0.466- 191 1.88  17 2.10  29 2.10  76 2.17
 172  0.585  0.419  0.790-  77 1.96  32 1.98  18 2.00  30 2.00
 173  0.583  0.667  0.130-  31 1.96  33 1.98  19 1.98  78 2.00
 174  0.586  0.664  0.466- 191 1.88  34 2.10  20 2.10  79 2.17
 175  0.585  0.665  0.790-  80 1.96  32 1.98  35 2.00  21 2.00
 176  0.583  0.917  0.127-  33 1.96  25 1.97  22 1.97  81 1.99
 177  0.583  0.916  0.459-  34 1.93  23 1.98  26 1.98  82 1.99
 178  0.583  0.916  0.794-  83 1.97  35 1.97  24 1.98  27 1.98
 179  0.833  0.167  0.127-  39 1.97  36 1.97  25 1.97  84 1.99
 180  0.833  0.166  0.460-  40 1.97  37 1.97  26 1.97  85 1.99
 181  0.833  0.167  0.793-  86 1.97  27 1.98  41 1.98  38 1.98
 182  0.833  0.417  0.127-  42 1.96  28 1.96  39 1.98  87 1.99
 183  0.833  0.417  0.460-  43 1.95  29 1.95  88 2.00  40 2.00
 184  0.833  0.417  0.794-  89 1.96  44 1.98  30 1.98  41 1.98
 185  0.833  0.667  0.130-  31 1.96  45 1.98  42 1.98  90 2.00
 186  0.827  0.664  0.466- 191 1.88  46 2.10  43 2.10  91 2.17
 187  0.831  0.665  0.790-  92 1.96  32 1.98  47 2.00  44 2.00
 188  0.833  0.917  0.127-  33 1.96  45 1.96  36 1.98  93 1.99
 189  0.833  0.916  0.460-  34 1.95  46 1.95  94 2.00  37 2.00
 190  0.833  0.916  0.794-  95 1.96  35 1.98  47 1.98  38 1.98
 191  0.667  0.583  0.499- 171 1.88 186 1.88 174 1.88  77 3.16  92 3.16  80 3.16
 
  LATTYP: Found a hexagonal cell.
 ALAT       =    12.9943542480
 C/A-ratio  =     1.2014478222
  
  Lattice vectors:
  
 A1 = (  12.9943542480,   0.0000000000,   0.0000000000)
 A2 = (  -6.4971766472,  11.2534400587,   0.0000000000)
 A3 = (   0.0000000000,   0.0000000000,  15.6120386124)


Analysis of symmetry for initial positions (statically):
=====================================================================
 Subroutine PRICEL returns:
 Original cell was already a primitive cell.
 

 Routine SETGRP: Setting up the symmetry group for a 
 hexagonal supercell.


 Subroutine GETGRP returns: Found  6 space group operations
 (whereof  1 operations were pure point group operations)
 out of a pool of 24 trial point group operations.


The static configuration has the point symmetry C_1 .
 The point group associated with its full space group is C_3v.


Analysis of symmetry for dynamics (positions and initial velocities):
=====================================================================
 Subroutine PRICEL returns:
 Original cell was already a primitive cell.
 

 Routine SETGRP: Setting up the symmetry group for a 
 hexagonal supercell.


 Subroutine GETGRP returns: Found  6 space group operations
 (whereof  1 operations were pure point group operations)
 out of a pool of 24 trial point group operations.


The dynamic configuration has the point symmetry C_1 .
 The point group associated with its full space group is C_3v.


Analysis of structural, dynamic, and magnetic symmetry:
=====================================================================
 Subroutine PRICEL returns:
 Original cell was already a primitive cell.
 

 Routine SETGRP: Setting up the symmetry group for a 
 hexagonal supercell.


 Subroutine GETGRP returns: Found  6 space group operations
 (whereof  1 operations were pure point group operations)
 out of a pool of 24 trial point group operations.


The overall configuration has the point symmetry C_1 .
 The point group associated with its full space group is C_3v.


 Subroutine INISYM returns: Found  6 space group operations
 (whereof  1 operations are pure point group operations),
 and found     1 'primitive' translations


----------------------------------------------------------------------------------------

                                     Primitive cell                                     

  volume of cell :    2282.9669

  direct lattice vectors                    reciprocal lattice vectors
    12.994354248  0.000000000  0.000000000     0.076956498  0.044430855  0.000000000
    -6.497176647 11.253440059  0.000000000     0.000000000  0.088861716  0.000000000
     0.000000000  0.000000000 15.612038612     0.000000000  0.000000000  0.064053134

  length of vectors
    12.994354248 12.994353294 15.612038612     0.088861710  0.088861716  0.064053134

  position of ions in fractional coordinates (direct lattice)
     0.166581618  0.083418390  0.165449468
     0.166730331  0.083269677  0.499745246
     0.166505958  0.083494050  0.833737696
     0.166064812  0.333032413  0.165600220
     0.164998696  0.332499355  0.499564085
     0.166359612  0.333179813  0.833707147
     0.166581618  0.583163205  0.165449468
     0.166730331  0.583460631  0.499745246
     0.166505958  0.583011884  0.833737696
     0.166959091  0.833479522  0.165425065
     0.167919881  0.833959918  0.500201427
     0.166949279  0.833474617  0.833859754
     0.416520478  0.083040917  0.165425065
     0.416040082  0.082080127  0.500201427
     0.416525383  0.083050729  0.833859754
     0.415191858  0.332429782  0.165799733
     0.406824598  0.327029201  0.502282105
     0.417817952  0.333947606  0.833269200
     0.415191858  0.582762045  0.165799733
     0.406824598  0.579795366  0.502282105
     0.417817952  0.583870314  0.833269200
     0.416520478  0.833479522  0.165425065
     0.416040082  0.833959918  0.500201427
     0.416525383  0.833474617  0.833859754
     0.666836795  0.083418390  0.165449468
     0.666539369  0.083269677  0.499745246
     0.666988116  0.083494050  0.833737696
     0.667237955  0.332429782  0.165799733
     0.670204634  0.327029201  0.502282105
     0.666129686  0.333947606  0.833269200
     0.666666687  0.583333313  0.166807129
     0.666666687  0.583333313  0.834876199
     0.667237955  0.834808142  0.165799733
     0.670204634  0.843175402  0.502282105
     0.666129686  0.832182048  0.833269200
     0.916967617  0.083935196  0.165600220
     0.917500675  0.085001312  0.499564085
     0.916820217  0.083640396  0.833707147
     0.916967617  0.333032413  0.165600220
     0.917500675  0.332499355  0.499564085
     0.916820217  0.333179813  0.833707147
     0.917570248  0.582762045  0.165799733
     0.922970829  0.579795366  0.502282105
     0.916052424  0.583870314  0.833269200
     0.917570248  0.834808142  0.165799733
     0.922970829  0.843175402  0.502282105
     0.916052424  0.832182048  0.833269200
     0.083310978  0.166689030  0.999710384
     0.083289019  0.166710989  0.332168244
     0.083285951  0.166714057  0.666799394
     0.083310978  0.416621970  0.999710384
     0.083289019  0.416578053  0.332168244
     0.083285951  0.416571917  0.666799394
     0.083282432  0.666633019  0.999631308
     0.085034252  0.667439167  0.331781964
     0.084114281  0.667253774  0.667903285
     0.083282432  0.916649451  0.999631308
     0.085034252  0.917595123  0.331781964
     0.084114281  0.916860544  0.667903285
     0.333350579  0.166717576  0.999631308
     0.332404907  0.164965756  0.331781964
     0.333139486  0.165885727  0.667903285
     0.333382201  0.416691116  0.999612748
     0.331613397  0.415806714  0.332137672
     0.332186130  0.416093080  0.668597797
     0.333350579  0.666633019  0.999631308
     0.332404907  0.667439167  0.331781964
     0.333139486  0.667253774  0.667903285
     0.333333343  0.916666687  0.999667183
     0.333333343  0.916666687  0.332093910
     0.333333343  0.916666687  0.667017801
     0.583366981  0.166717576  0.999631308
     0.582560833  0.164965756  0.331781964
     0.582746226  0.165885727  0.667903285
     0.583265026  0.416530113  0.001351501
     0.581772613  0.413545288  0.326892952
     0.585207258  0.420414577  0.663973322
     0.583265026  0.666734974  0.001351501
     0.581772613  0.668227387  0.326892952
     0.585207258  0.664792742  0.663973322
     0.583366981  0.916649451  0.999631308
     0.582560833  0.917595123  0.331781964
     0.582746226  0.916860544  0.667903285
     0.833378030  0.166689030  0.999710384
     0.833421947  0.166710989  0.332168244
     0.833428083  0.166714057  0.666799394
     0.833308884  0.416691116  0.999612748
     0.834193286  0.415806714  0.332137672
     0.833906920  0.416093080  0.668597797
     0.833469887  0.666734974  0.001351501
     0.836454712  0.668227387  0.326892952
     0.829585423  0.664792742  0.663973322
     0.833308884  0.916617829  0.999612748
     0.834193286  0.918386633  0.332137672
     0.833906920  0.917813900  0.668597797
     0.166535252  0.083464756  0.293113268
     0.166823825  0.083176183  0.626430324
     0.166674849  0.083325159  0.960471717
     0.166489408  0.333244711  0.293283411
     0.167218588  0.333609301  0.626200057
     0.166894236  0.333447125  0.960463965
     0.166535252  0.583070472  0.293113268
     0.166823825  0.583647620  0.626430324
     0.166674849  0.583349668  0.960471717
     0.166670458  0.833335206  0.293053175
     0.166300526  0.833150240  0.626724367
     0.166571810  0.833285882  0.960520898
     0.416664794  0.083329550  0.293053175
     0.416849760  0.083699482  0.626724367
     0.416714118  0.083428198  0.960520898
     0.416454104  0.333273323  0.294693318
     0.418050576  0.334774999  0.627067154
     0.417704436  0.333948915  0.960240672
     0.416454104  0.583180750  0.294693318
     0.418050576  0.583275546  0.627067154
     0.417704436  0.583755490  0.960240672
     0.416664794  0.833335206  0.293053175
     0.416849760  0.833150240  0.626724367
     0.416714118  0.833285882  0.960520898
     0.666929528  0.083464756  0.293113268
     0.666352380  0.083176183  0.626430324
     0.666650332  0.083325159  0.960471717
     0.666819250  0.333273323  0.294693318
     0.666724454  0.334774999  0.627067154
     0.666244510  0.333948915  0.960240672
     0.666666687  0.583333313  0.298918924
     0.666666687  0.583333313  0.961116429
     0.666819250  0.833545896  0.294693318
     0.666724454  0.831949424  0.627067154
     0.666244510  0.832295564  0.960240672
     0.916755319  0.083510600  0.293283411
     0.916390729  0.082781420  0.626200057
     0.916552905  0.083105772  0.960463965
     0.916755319  0.333244711  0.293283411
     0.916390729  0.333609301  0.626200057
     0.916552905  0.333447125  0.960463965
     0.916726707  0.583180750  0.294693318
     0.915225031  0.583275546  0.627067154
     0.916051115  0.583755490  0.960240672
     0.916726707  0.833545896  0.294693318
     0.915225031  0.831949424  0.627067154
     0.916051115  0.832295564  0.960240672
     0.083352048  0.166647960  0.126900748
     0.083646648  0.166353360  0.459679288
     0.083322998  0.166677010  0.793298117
     0.083352048  0.416704111  0.126900748
     0.083646648  0.417293312  0.459679288
     0.083322998  0.416646011  0.793298117
     0.083200353  0.666608673  0.127015774
     0.083569587  0.667407085  0.459436267
     0.082839736  0.666536159  0.793945317
     0.083200353  0.916591718  0.127015774
     0.083569587  0.916162540  0.459436267
     0.082839736  0.916303616  0.793945317
     0.333408312  0.166799655  0.127015774
     0.333837490  0.166430421  0.459436267
     0.333696414  0.167160272  0.793945317
     0.333346936  0.416673483  0.127251212
     0.334238223  0.417119127  0.459916969
     0.333721804  0.416860917  0.794262775
     0.333408312  0.666608673  0.127015774
     0.333837490  0.667407085  0.459436267
     0.333696414  0.666536159  0.793945317
     0.333333343  0.916666687  0.126805397
     0.333333343  0.916666687  0.459492340
     0.333333343  0.916666687  0.793501214
     0.583391327  0.166799655  0.127015774
     0.582592915  0.166430421  0.459436267
     0.583463841  0.167160272  0.793945317
     0.583483657  0.416967374  0.129542011
     0.586264954  0.422529968  0.465868566
     0.584506963  0.419013988  0.789697970
     0.583483657  0.666516343  0.129542011
     0.586264954  0.663735046  0.465868566
     0.584506963  0.665493037  0.789697970
     0.583391327  0.916591718  0.127015774
     0.582592915  0.916162540  0.459436267
     0.583463841  0.916303616  0.793945317
     0.833295889  0.166647960  0.126900748
     0.832706688  0.166353360  0.459679288
     0.833353989  0.166677010  0.793298117
     0.833326517  0.416673483  0.127251212
     0.832880873  0.417119127  0.459916969
     0.833139083  0.416860917  0.794262775
     0.833032626  0.666516343  0.129542011
     0.827470032  0.663735046  0.465868566
     0.830986012  0.665493037  0.789697970
     0.833326517  0.916653094  0.127251212
     0.832880873  0.915761807  0.459916969
     0.833139083  0.916278226  0.794262775
     0.666666687  0.583333313  0.499015665

  ion indices of the primitive-cell ions
   primitive index   ion index
                 1           1
                 2           2
                 3           3
                 4           4
                 5           5
                 6           6
                 7           7
                 8           8
                 9           9
                10          10
                11          11
                12          12
                13          13
                14          14
                15          15
                16          16
                17          17
                18          18
                19          19
                20          20
                21          21
                22          22
                23          23
                24          24
                25          25
                26          26
                27          27
                28          28
                29          29
                30          30
                31          31
                32          32
                33          33
                34          34
                35          35
                36          36
                37          37
                38          38
                39          39
                40          40
                41          41
                42          42
                43          43
                44          44
                45          45
                46          46
                47          47
                48          48
                49          49
                50          50
                51          51
                52          52
                53          53
                54          54
                55          55
                56          56
                57          57
                58          58
                59          59
                60          60
                61          61
                62          62
                63          63
                64          64
                65          65
                66          66
                67          67
                68          68
                69          69
                70          70
                71          71
                72          72
                73          73
                74          74
                75          75
                76          76
                77          77
                78          78
                79          79
                80          80
                81          81
                82          82
                83          83
                84          84
                85          85
                86          86
                87          87
                88          88
                89          89
                90          90
                91          91
                92          92
                93          93
                94          94
                95          95
                96          96
                97          97
                98          98
                99          99
               100         100
               101         101
               102         102
               103         103
               104         104
               105         105
               106         106
               107         107
               108         108
               109         109
               110         110
               111         111
               112         112
               113         113
               114         114
               115         115
               116         116
               117         117
               118         118
               119         119
               120         120
               121         121
               122         122
               123         123
               124         124
               125         125
               126         126
               127         127
               128         128
               129         129
               130         130
               131         131
               132         132
               133         133
               134         134
               135         135
               136         136
               137         137
               138         138
               139         139
               140         140
               141         141
               142         142
               143         143
               144         144
               145         145
               146         146
               147         147
               148         148
               149         149
               150         150
               151         151
               152         152
               153         153
               154         154
               155         155
               156         156
               157         157
               158         158
               159         159
               160         160
               161         161
               162         162
               163         163
               164         164
               165         165
               166         166
               167         167
               168         168
               169         169
               170         170
               171         171
               172         172
               173         173
               174         174
               175         175
               176         176
               177         177
               178         178
               179         179
               180         180
               181         181
               182         182
               183         183
               184         184
               185         185
               186         186
               187         187
               188         188
               189         189
               190         190
               191         191

----------------------------------------------------------------------------------------

 
 
 KPOINTS: pymatgen with grid density = 659 / numbe

Automatic generation of k-mesh.
 Grid dimensions read from file:
 generate k-points for:    1    1    1

 Generating k-lattice:

  Cartesian coordinates                     Fractional coordinates (reciprocal lattice)
     0.076956498  0.044430855  0.000000000     1.000000000  0.000000000  0.000000000
     0.000000000  0.088861716  0.000000000     0.000000000  1.000000000  0.000000000
     0.000000000  0.000000000  0.064053134     0.000000000  0.000000000  1.000000000

  Length of vectors
     0.088861710  0.088861716  0.064053134

  Shift w.r.t. Gamma in fractional coordinates (k-lattice)
     0.000000000  0.000000000  0.000000000

 
 Subroutine IBZKPT returns following result:
 ===========================================
 
 Found      1 irreducible k-points:
 
 Following reciprocal coordinates:
            Coordinates               Weight
  0.000000  0.000000  0.000000      1.000000
 
 Following cartesian coordinates:
            Coordinates               Weight
  0.000000  0.000000  0.000000      1.000000
 
 
 Subroutine IBZKPT_HF returns following result:
 ==============================================
 
 Found      1 k-points in 1st BZ
 the following      1 k-points will be used (e.g. in the exchange kernel)
 Following reciprocal coordinates:   # in IRBZ
  0.000000  0.000000  0.000000    1.00000000   1 t-inv F


--------------------------------------------------------------------------------------------------------




 Dimension of arrays:
   k-points           NKPTS =      1   k-points in BZ     NKDIM =      1   number of bands    NBANDS=   1056
   number of dos      NEDOS =    301   number of ions     NIONS =    191
   non local maximal  LDIM  =      6   non local SUM 2l+1 LMDIM =     18
   total plane-waves  NPLWV = 327680
   max r-space proj   IRMAX =   2305   max aug-charges    IRDMAX=   6476
   dimension x,y,z NGX =    64 NGY =   64 NGZ =   80
   dimension x,y,z NGXF=   128 NGYF=  128 NGZF=  160
   support grid    NGXF=   128 NGYF=  128 NGZF=  160
   ions per type =              95  95   1
   NGX,Y,Z   is equivalent  to a cutoff of   8.19,  8.19,  8.52 a.u.
   NGXF,Y,Z  is equivalent  to a cutoff of  16.38, 16.38, 17.04 a.u.

 SYSTEM =  zno                                     
 POSCAR =    Zn2 O2                                

 Startparameter for this run:
   NWRITE =      2    write-flag & timer
   PREC   = normal    normal or accurate (medium, high low for compatibility)
   ISTART =      1    job   : 0-new  1-cont  2-samecut
   ICHARG =      1    charge: 1-file 2-atom 10-const
   ISPIN  =      2    spin polarized calculation?
   LNONCOLLINEAR =      F non collinear calculations
   LSORBIT =      F    spin-orbit coupling
   INIWAV =      1    electr: 0-lowe 1-rand  2-diag
   LASPH  =      F    aspherical Exc in radial PAW
 Electronic Relaxation 1
   ENCUT  =  400.0 eV  29.40 Ry    5.42 a.u.  21.19 21.19 25.46*2*pi/ulx,y,z
   ENINI  =  400.0     initial cutoff
   ENAUG  =  605.4 eV  augmentation charge cutoff
   NELM   =   1000;   NELMIN=  4; NELMDL=  0     # of ELM steps 
   EDIFF  = 0.1E-05   stopping-criterion for ELM
   LREAL  =      T    real-space projection
   NLSPLINE    = F    spline interpolate recip. space projectors
   LCOMPAT=      F    compatible to vasp.4.4
   GGA_COMPAT  = T    GGA compatible to vasp.4.4-vasp.4.6
   LMAXPAW     = -100 max onsite density
   LMAXMIX     =    2 max onsite mixed and CHGCAR
   VOSKOWN=      0    Vosko Wilk Nusair interpolation
   ROPT   =   -0.00050  -0.00050  -0.00050
 Ionic relaxation
   EDIFFG = -.1E-01   stopping-criterion for IOM
   NSW    =     30    number of steps for IOM
   NBLOCK =      1;   KBLOCK =     30    inner block; outer block 
   IBRION =      2    ionic relax: 0-MD 1-quasi-New 2-CG
   NFREE  =      1    steps in history (QN), initial steepest desc. (CG)
   ISIF   =      2    stress and relaxation
   IWAVPR =     11    prediction:  0-non 1-charg 2-wave 3-comb
   ISYM   =      3    0-nonsym 1-usesym 2-fastsym
   LCORR  =      T    Harris-Foulkes like correction to forces

   POTIM  = 0.5000    time-step for ionic-motion
   TEIN   =    0.0    initial temperature
   TEBEG  =    0.0;   TEEND  =   0.0 temperature during run
   SMASS  =  -3.00    Nose mass-parameter (am)
   estimated Nose-frequenzy (Omega)   =  0.10E-29 period in steps = 0.13E+47 mass=  -0.386E-26a.u.
   SCALEE = 1.0000    scale energy and forces
   NPACO  =    256;   APACO  = 10.0  distance and # of slots for P.C.
   PSTRESS=    0.0 pullay stress

  Mass of Ions in am
   POMASS =  65.39 16.00 95.94
  Ionic Valenz
   ZVAL   =  12.00  6.00 14.00
  Atomic Wigner-Seitz radii
   RWIGS  =  -1.00 -1.00 -1.00
  virtual crystal weights 
   VCA    =   1.00  1.00  1.00
   NELECT =    1722.0000    total number of electrons
   NUPDOWN=      -1.0000    fix difference up-down

 DOS related values:
   EMIN   =  10.00;   EMAX   =-10.00  energy-range for DOS
   EFERMI =   0.00;   METHOD = LEGACY      
   ISMEAR =     0;   SIGMA  =   0.01  broadening in eV -4-tet -1-fermi 0-gaus

 Electronic relaxation 2 (details)
   IALGO  =     53    algorithm
   LDIAG  =      T    sub-space diagonalisation (order eigenvalues)
   LSUBROT=      F    optimize rotation matrix (better conditioning)
   TURBO    =      0    0=normal 1=particle mesh
   IRESTART =      0    0=no restart 2=restart with 2 vectors
   NREBOOT  =      0    no. of reboots
   NMIN     =      0    reboot dimension
   EREF     =   0.00    reference energy to select bands
   IMIX   =      4    mixing-type and parameters
     AMIX     =   0.40;   BMIX     =  1.00
     AMIX_MAG =   1.60;   BMIX_MAG =  1.00
     AMIN     =   0.10
     WC   =   100.;   INIMIX=   1;  MIXPRE=   1;  MAXMIX= -45

 Intra band minimization:
   WEIMIN = 0.0010     energy-eigenvalue tresh-hold
   EBREAK =  0.24E-09  absolut break condition
   DEPER  =   0.30     relativ break condition  

   TIME   =   0.30     timestep for ELM

  volume/ion in A,a.u.               =      11.95        80.66
  Fermi-wavevector in a.u.,A,eV,Ry     =   1.490228  2.816122 30.215533  2.220779
  Thomas-Fermi vector in A             =   2.603036
 
 Write flags
   LWAVE        =      T    write WAVECAR
   LDOWNSAMPLE  =      F    k-point downsampling of WAVECAR
   LCHARG       =      T    write CHGCAR
   LVTOT        =      F    write LOCPOT, total local potential
   LVHAR        =      T    write LOCPOT, Hartree potential only
   LELF         =      F    write electronic localiz. function (ELF)
   LORBIT       =     11    0 simple, 1 ext, 2 COOP (PROOUT), +10 PAW based schemes


 Dipole corrections
   LMONO  =      F    monopole corrections only (constant potential shift)
   LDIPOL =      F    correct potential (dipole corrections)
   IDIPOL =      0    1-x, 2-y, 3-z, 4-all directions 
   EPSILON=  1.0000000 bulk dielectric constant

 Exchange correlation treatment:
   GGA     =    PE    GGA type
   LEXCH   =     8    internal setting for exchange type
   LIBXC   =     F    Libxc                    
   VOSKOWN =     0    Vosko Wilk Nusair interpolation
   EXXOEP  =     0    0=HF, 1=EXX-LHF (local Hartree Fock) 2=EXX OEP
   LHFCALC =     T    Hartree Fock is set to
   LSYMGRAD=     F    symmetrize gradient (conserves proper symmetry)
   PRECFOCK=normal    Normal, Fast or Accurate (Low or Medium for compatibility)
   LRHFCALC=     F    long range Hartree Fock
   LRSCOR  =     F    long range correlation only (use DFT for short range part)
   LTHOMAS =     F    Thomas Fermi screening in HF
   LMODELHF=     F    short range full HF, long range fraction AEXX
   FOCKCORR=     1    mode to apply convergence corrections
   LFOCKACE=     T    use Adeptively-Compressed-Exchange operator
   ENCUT4O =  -1.0   cutoff for four orbital integrals eV
   LMAXFOCK=     4    L truncation for augmentation on plane wave grid
   LMAXFOCKAE=  -1    L truncation for all-electron charge restoration on plane wave grid
   NMAXFOCKAE=   1    number of basis functions for all-electron charge restoration
   LFOCKAEDFT=     F  apply the AE augmentation even for DFT
   NKREDX  =     1    reduce k-point grid by
   NKREDY  =     1    reduce k-point grid by
   NKREDZ  =     1    reduce k-point grid by
   SHIFTRED=     F    shift reduced grid of Gamma
   HFKIDENT=     F    idential grid for each k-point
   ODDONLY =     F    use only odd q-grid points
   EVENONLY=     F    use only even q-grid points
   HFALPHA =   -1.0000 decay constant for conv. correction
   MCALPHA =    0.0000 extent of test-charge in conv. correction in multipole expansion
   AEXX    =    0.3750 exact exchange contribution
   HFSCREEN=    0.2000 screening length (either q_TF or 0.3 A-1)
   HFSCREENC=   0.2000 screening length for correlation (either q_TF or 0.3 A-1)
   HFRCUT  =    0.0000 spherical cutoff for potential kernel
   ALDAX   =    0.6250 LDA exchange part
   AGGAX   =    0.6250 GGA exchange part
   ALDAC   =    1.0000 LDA correlation
   AGGAC   =    1.0000 GGA correlation
   ENCUTFOCK=  -1.0 apply spherical cutoff to Coloumb kernel
   NBANDSGWLOW=     1    first orbital included in HF term
   NBLOCK_FOCK=    64    blocking factor in FOCK_ACC

 Linear response parameters
   LEPSILON=     F    determine dielectric tensor
   LRPA    =     F    only Hartree local field effects (RPA)
   LNABLA  =     F    use nabla operator in PAW spheres
   LVEL    =     F    velocity operator in full k-point grid
   CSHIFT  =0.1000    complex shift for real part using Kramers Kronig
   OMEGAMAX=  -1.0    maximum frequency
   DEG_THRESHOLD= 0.2000000E-02 threshold for treating states as degnerate
   RTIME   =   -0.100 relaxation time in fs
  (WPLASMAI=    0.000 imaginary part of plasma frequency in eV, 0.658/RTIME)
   DFIELD  = 0.0000000 0.0000000 0.0000000 field for delta impulse in time
 
  Optional k-point grid parameters
   LKPOINTS_OPT  =     F    use optional k-point grid
   KPOINTS_OPT_MODE=     1    mode for optional k-point grid
 
 Orbital magnetization related:
   ORBITALMAG=     F  switch on orbital magnetization
   LCHIMAG   =     F  perturbation theory with respect to B field
   DQ        =  0.001000  dq finite difference perturbation B field
   LLRAUG    =     F  two centre corrections for induced B field
   LBONE     =     F  B-component reconstruction in AE one-centre
   LVGVCALC  =     T  calculate vGv susceptibility
   LVGVAPPL  =     F  apply vGv susceptibility instead of pGv for G=0

 Random number generation:
   RANDOM_GENERATOR = DEFAULT
   PCG_SEED         = not used


--------------------------------------------------------------------------------------------------------


 conjugate gradient relaxation of ions
 charge density and potential will be updated during run
 spin polarized calculation
 Conjugate gradient for all bands (Freysoldt, et al. PRB 79, 241103 (2009))
 perform sub-space diagonalisation
    before iterative eigenvector-optimisation
 modified Broyden-mixing scheme, WC =      100.0
 initial mixing is a Kerker type mixing with AMIX =  0.4000 and BMIX =      1.0000
 Hartree-type preconditioning will be used
 using additional bands          195
 real space projection scheme for non local part
 use partial core corrections
 no Harris-corrections to forces 
 use gradient corrections 
 use of overlap-Matrix (Vanderbilt PP)
 Gauss-broadening in eV      SIGMA  =   0.01


--------------------------------------------------------------------------------------------------------


  energy-cutoff  :      400.00
  volume of cell :     2282.97
      direct lattice vectors                 reciprocal lattice vectors
    12.994354248  0.000000000  0.000000000     0.076956498  0.044430855  0.000000000
    -6.497176647 11.253440059  0.000000000     0.000000000  0.088861716  0.000000000
     0.000000000  0.000000000 15.612038612     0.000000000  0.000000000  0.064053134

  length of vectors
    12.994354248 12.994353294 15.612038612     0.088861710  0.088861716  0.064053134


 
 old parameters found on file WAVECAR:
  energy-cutoff  :      400.00
  volume of cell :     2282.97
      direct lattice vectors                 reciprocal lattice vectors
    12.994354248  0.000000000  0.000000000     0.076956498  0.044430855  0.000000000
    -6.497176647 11.253440059  0.000000000     0.000000000  0.088861716  0.000000000
     0.000000000  0.000000000 15.612038612     0.000000000  0.000000000  0.064053134

  length of vectors

 
 k-points in units of 2pi/SCALE and weight: pymatgen with grid density = 659 / numbe
   0.00000000  0.00000000  0.00000000       1.000
 
 k-points in reciprocal lattice and weights: pymatgen with grid density = 659 / numbe
   0.00000000  0.00000000  0.00000000       1.000
 
 position of ions in fractional coordinates (direct lattice) 
   0.16658162  0.08341839  0.16544947
   0.16673033  0.08326968  0.49974525
   0.16650596  0.08349405  0.83373770
   0.16606481  0.33303241  0.16560022
   0.16499870  0.33249936  0.49956409
   0.16635961  0.33317981  0.83370715
   0.16658162  0.58316320  0.16544947
   0.16673033  0.58346063  0.49974525
   0.16650596  0.58301188  0.83373770
   0.16695909  0.83347952  0.16542506
   0.16791988  0.83395992  0.50020143
   0.16694928  0.83347462  0.83385975
   0.41652048  0.08304092  0.16542506
   0.41604008  0.08208013  0.50020143
   0.41652538  0.08305073  0.83385975
   0.41519186  0.33242978  0.16579973
   0.40682460  0.32702920  0.50228211
   0.41781795  0.33394761  0.83326920
   0.41519186  0.58276204  0.16579973
   0.40682460  0.57979537  0.50228211
   0.41781795  0.58387031  0.83326920
   0.41652048  0.83347952  0.16542506
   0.41604008  0.83395992  0.50020143
   0.41652538  0.83347462  0.83385975
   0.66683680  0.08341839  0.16544947
   0.66653937  0.08326968  0.49974525
   0.66698812  0.08349405  0.83373770
   0.66723796  0.33242978  0.16579973
   0.67020463  0.32702920  0.50228211
   0.66612969  0.33394761  0.83326920
   0.66666669  0.58333331  0.16680713
   0.66666669  0.58333331  0.83487620
   0.66723796  0.83480814  0.16579973
   0.67020463  0.84317540  0.50228211
   0.66612969  0.83218205  0.83326920
   0.91696762  0.08393520  0.16560022
   0.91750067  0.08500131  0.49956409
   0.91682022  0.08364040  0.83370715
   0.91696762  0.33303241  0.16560022
   0.91750067  0.33249936  0.49956409
   0.91682022  0.33317981  0.83370715
   0.91757025  0.58276204  0.16579973
   0.92297083  0.57979537  0.50228211
   0.91605242  0.58387031  0.83326920
   0.91757025  0.83480814  0.16579973
   0.92297083  0.84317540  0.50228211
   0.91605242  0.83218205  0.83326920
   0.08331098  0.16668903  0.99971038
   0.08328902  0.16671099  0.33216824
   0.08328595  0.16671406  0.66679939
   0.08331098  0.41662197  0.99971038
   0.08328902  0.41657805  0.33216824
   0.08328595  0.41657192  0.66679939
   0.08328243  0.66663302  0.99963131
   0.08503425  0.66743917  0.33178196
   0.08411428  0.66725377  0.66790329
   0.08328243  0.91664945  0.99963131
   0.08503425  0.91759512  0.33178196
   0.08411428  0.91686054  0.66790329
   0.33335058  0.16671758  0.99963131
   0.33240491  0.16496576  0.33178196
   0.33313949  0.16588573  0.66790329
   0.33338220  0.41669112  0.99961275
   0.33161340  0.41580671  0.33213767
   0.33218613  0.41609308  0.66859780
   0.33335058  0.66663302  0.99963131
   0.33240491  0.66743917  0.33178196
   0.33313949  0.66725377  0.66790329
   0.33333334  0.91666669  0.99966718
   0.33333334  0.91666669  0.33209391
   0.33333334  0.91666669  0.66701780
   0.58336698  0.16671758  0.99963131
   0.58256083  0.16496576  0.33178196
   0.58274623  0.16588573  0.66790329
   0.58326503  0.41653011  0.00135150
   0.58177261  0.41354529  0.32689295
   0.58520726  0.42041458  0.66397332
   0.58326503  0.66673497  0.00135150
   0.58177261  0.66822739  0.32689295
   0.58520726  0.66479274  0.66397332
   0.58336698  0.91664945  0.99963131
   0.58256083  0.91759512  0.33178196
   0.58274623  0.91686054  0.66790329
   0.83337803  0.16668903  0.99971038
   0.83342195  0.16671099  0.33216824
   0.83342808  0.16671406  0.66679939
   0.83330888  0.41669112  0.99961275
   0.83419329  0.41580671  0.33213767
   0.83390692  0.41609308  0.66859780
   0.83346989  0.66673497  0.00135150
   0.83645471  0.66822739  0.32689295
   0.82958542  0.66479274  0.66397332
   0.83330888  0.91661783  0.99961275
   0.83419329  0.91838663  0.33213767
   0.83390692  0.91781390  0.66859780
   0.16653525  0.08346476  0.29311327
   0.16682383  0.08317618  0.62643032
   0.16667485  0.08332516  0.96047172
   0.16648941  0.33324471  0.29328341
   0.16721859  0.33360930  0.62620006
   0.16689424  0.33344713  0.96046397
   0.16653525  0.58307047  0.29311327
   0.16682383  0.58364762  0.62643032
   0.16667485  0.58334967  0.96047172
   0.16667046  0.83333521  0.29305318
   0.16630053  0.83315024  0.62672437
   0.16657181  0.83328588  0.96052090
   0.41666479  0.08332955  0.29305318
   0.41684976  0.08369948  0.62672437
   0.41671412  0.08342820  0.96052090
   0.41645410  0.33327332  0.29469332
   0.41805058  0.33477500  0.62706715
   0.41770444  0.33394891  0.96024067
   0.41645410  0.58318075  0.29469332
   0.41805058  0.58327555  0.62706715
   0.41770444  0.58375549  0.96024067
   0.41666479  0.83333521  0.29305318
   0.41684976  0.83315024  0.62672437
   0.41671412  0.83328588  0.96052090
   0.66692953  0.08346476  0.29311327
   0.66635238  0.08317618  0.62643032
   0.66665033  0.08332516  0.96047172
   0.66681925  0.33327332  0.29469332
   0.66672445  0.33477500  0.62706715
   0.66624451  0.33394891  0.96024067
   0.66666669  0.58333331  0.29891892
   0.66666669  0.58333331  0.96111643
   0.66681925  0.83354590  0.29469332
   0.66672445  0.83194942  0.62706715
   0.66624451  0.83229556  0.96024067
   0.91675532  0.08351060  0.29328341
   0.91639073  0.08278142  0.62620006
   0.91655290  0.08310577  0.96046397
   0.91675532  0.33324471  0.29328341
   0.91639073  0.33360930  0.62620006
   0.91655290  0.33344713  0.96046397
   0.91672671  0.58318075  0.29469332
   0.91522503  0.58327555  0.62706715
   0.91605112  0.58375549  0.96024067
   0.91672671  0.83354590  0.29469332
   0.91522503  0.83194942  0.62706715
   0.91605112  0.83229556  0.96024067
   0.08335205  0.16664796  0.12690075
   0.08364665  0.16635336  0.45967929
   0.08332300  0.16667701  0.79329812
   0.08335205  0.41670411  0.12690075
   0.08364665  0.41729331  0.45967929
   0.08332300  0.41664601  0.79329812
   0.08320035  0.66660867  0.12701577
   0.08356959  0.66740708  0.45943627
   0.08283974  0.66653616  0.79394532
   0.08320035  0.91659172  0.12701577
   0.08356959  0.91616254  0.45943627
   0.08283974  0.91630362  0.79394532
   0.33340831  0.16679965  0.12701577
   0.33383749  0.16643042  0.45943627
   0.33369641  0.16716027  0.79394532
   0.33334694  0.41667348  0.12725121
   0.33423822  0.41711913  0.45991697
   0.33372180  0.41686092  0.79426278
   0.33340831  0.66660867  0.12701577
   0.33383749  0.66740708  0.45943627
   0.33369641  0.66653616  0.79394532
   0.33333334  0.91666669  0.12680540
   0.33333334  0.91666669  0.45949234
   0.33333334  0.91666669  0.79350121
   0.58339133  0.16679965  0.12701577
   0.58259292  0.16643042  0.45943627
   0.58346384  0.16716027  0.79394532
   0.58348366  0.41696737  0.12954201
   0.58626495  0.42252997  0.46586857
   0.58450696  0.41901399  0.78969797
   0.58348366  0.66651634  0.12954201
   0.58626495  0.66373505  0.46586857
   0.58450696  0.66549304  0.78969797
   0.58339133  0.91659172  0.12701577
   0.58259292  0.91616254  0.45943627
   0.58346384  0.91630362  0.79394532
   0.83329589  0.16664796  0.12690075
   0.83270669  0.16635336  0.45967929
   0.83335399  0.16667701  0.79329812
   0.83332652  0.41667348  0.12725121
   0.83288087  0.41711913  0.45991697
   0.83313908  0.41686092  0.79426278
   0.83303263  0.66651634  0.12954201
   0.82747003  0.66373505  0.46586857
   0.83098601  0.66549304  0.78969797
   0.83332652  0.91665309  0.12725121
   0.83288087  0.91576181  0.45991697
   0.83313908  0.91627823  0.79426278
   0.66666669  0.58333331  0.49901566
 
 position of ions in cartesian coordinates  (Angst):
   1.62263654  0.93874385  2.58300348
   1.62553518  0.93707032  7.80204207
   1.62116180  0.93959529 13.01634510
  -0.00586542  3.74776030  2.58535703
  -0.01625554  3.74176156  7.79921379
  -0.00299237  3.74941906 13.01586817
  -1.62429380  6.56259217  2.58300348
  -1.62429380  6.56593924  7.80204207
  -1.62429380  6.56088929 13.01634510
  -3.24573812  9.37951185  2.58262250
  -3.23637448  9.38491795  7.80916398
  -3.24583374  9.37945664 13.01825068
   4.87288313  0.93449598  2.58262250
   4.87288313  0.92368378  7.80916398
   4.87288313  0.93460640 13.01825068
   3.23529506  3.74097863  2.58847183
   3.16165646  3.68020351  7.84164762
   3.25955789  3.75805937 13.00903093
   1.60884213  6.55807774  2.58847183
   1.51939003  6.52469240  7.84164762
   1.63576590  6.57054959 13.00903093
  -0.00284905  9.37951185  2.58262250
  -0.01221269  9.38491795  7.80916398
  -0.00275343  9.37945664 13.01825068
   8.12312953  0.93874385  2.58300348
   8.12023088  0.93707032  7.80204207
   8.12460426  0.93959529 13.01634510
   6.51047134  3.74097863  2.58847183
   6.58410994  3.68020351  7.84164762
   6.48620852  3.75805937 13.00903093
   4.87288352  6.56450647  2.60419934
   4.87288352  6.56450647 13.03411945
   3.24643039  9.39446339  2.58847183
   3.23061690  9.48862384  7.84164762
   3.24909134  9.36491080 13.00903093
  11.37006025  0.94455969  2.58535703
  11.37006025  0.95655717  7.79921379
  11.37006025  0.94124218 13.01586817
   9.75163163  3.74776030  2.58535703
   9.76202175  3.74176156  7.79921379
   9.74875858  3.74941906 13.01586817
   8.13692490  6.55807774  2.58847183
   8.22637700  6.52469240  7.84164762
   8.11000113  6.57054959 13.00903093
   6.49933688  9.39446339  2.58847183
   6.51515038  9.48862384  7.84164762
   6.49667593  9.36491080 13.00903093
  -0.00043572  1.87582501 15.60751712
  -0.00086372  1.87607212  5.18582345
  -0.00092352  1.87610665 10.41009788
  -1.62429418  4.68843037 15.60751712
  -1.62429418  4.68793615  5.18582345
  -1.62429418  4.68786710 10.41009788
  -3.24903106  7.50191472 15.60628258
  -3.23150498  7.51098666  5.17979283
  -3.24225488  7.50890035 10.42733188
  -4.87343198 10.31545965 15.60628258
  -4.85681241 10.32610171  5.17979283
  -4.86399416 10.31783518 10.42733188
   3.24848198  1.87614625 15.60628258
   3.24757546  1.85643225  5.17979283
   3.25114362  1.86678509 10.42733188
   1.62477063  4.68920850 15.60599282
   1.60753228  4.67925593  5.18534616
   1.61311400  4.68247854 10.43817462
   0.00044303  7.50191472 15.60628258
  -0.01708305  7.51098666  5.17979283
  -0.00633315  7.50890035 10.42733188
  -1.62429385 10.31565362 15.60684265
  -1.62429385 10.31565362  5.18466295
  -1.62429385 10.31565362 10.41350766
   6.49728366  1.87614625 15.60628258
   6.49819017  1.85643225  5.17979283
   6.49462202  1.86678509 10.42733188
   4.87288265  4.68739666  0.02109968
   4.87288264  4.65380711  5.10346539
   4.87288265  4.73111025 10.36597714
   3.24725747  7.50306206  0.02109968
   3.21816806  7.51985684  5.10346539
   3.28511454  7.48120527 10.36597714
   1.62484380 10.31545965 15.60628258
   1.60822423 10.32610171  5.17979283
   1.61540597 10.31783518 10.42733188
   9.74620126  1.87582501 15.60751712
   9.74662927  1.87607212  5.18582345
   9.74668907  1.87610665 10.41009788
   8.12099505  4.68920850 15.60599282
   8.13823340  4.67925593  5.18534616
   8.13265168  4.68247854 10.43817462
   6.49850806  7.50306206  0.02109968
   6.52759747  7.51985684  5.10346539
   6.46065098  7.48120527 10.36597714
   4.87288288 10.31510380 15.60599282
   4.87288288 10.33500893  5.18534616
   4.87288288 10.32856371 10.43817462
   1.62173279  0.93926563  4.57609566
   1.62735753  0.93601818  9.77985440
   1.62445376  0.93769468 14.99492153
  -0.00172741  3.75014938  4.57875193
   0.00537901  3.75425227  9.77625947
   0.00221796  3.75242724 14.99480051
  -1.62429380  6.56154861  4.57609566
  -1.62429380  6.56804351  9.77985440
  -1.62429380  6.56469052 14.99492153
  -3.24855107  9.37788779  4.57515749
  -3.25215634  9.37580629  9.78444501
  -3.24951247  9.37733272 14.99568935
   4.87288313  0.93774410  4.57515749
   4.87288313  0.94190710  9.78444501
   4.87288313  0.93885423 14.99568935
   3.24621650  3.75047136  4.60076346
   3.25720498  3.76737038  9.78979662
   3.25807432  3.75807410 14.99131445
   1.62252380  6.56278961  4.60076346
   1.64265302  6.56385640  9.78979662
   1.63503688  6.56925742 14.99131445
  -0.00003610  9.37788779  4.57515749
   0.00356917  9.37580629  9.78444501
   0.00092530  9.37733272 14.99568935
   8.12403327  0.93926563  4.57609566
   8.11840853  0.93601818  9.77985440
   8.12131230  0.93769468 14.99492153
   6.49954991  3.75047136  4.60076346
   6.48856143  3.76737038  9.78979662
   6.48769208  3.75807410 14.99131445
   4.87288352  6.56450647  4.66673379
   4.87288352  6.56450647 15.00498681
   3.24919063  9.38025878  4.60076346
   3.25833137  9.36229297  9.78979662
   3.24984587  9.36618824 14.99131445
  11.37006025  0.93978153  4.57875193
  11.37006025  0.93157575  9.77625947
  11.37006025  0.93522582 14.99480051
   9.74749362  3.75014938  4.57875193
   9.74038720  3.75425227  9.77625947
   9.74354826  3.75242724 14.99480051
   8.12324323  6.56278961  4.60076346
   8.10311402  6.56385640  9.78979662
   8.11073016  6.56925742 14.99131445
   6.49657665  9.38025878  4.60076346
   6.48743591  9.36229297  9.78979662
   6.49592140  9.36618824 14.99131445
   0.00036481  1.87536283  1.98117938
   0.00610702  1.87204756  7.17653079
  -0.00020143  1.87568974 12.38500084
  -1.62429418  4.68935474  1.98117938
  -1.62429418  4.69598527  7.17653079
  -1.62429418  4.68870091 12.38500084
  -3.24993944  7.50164074  1.98297517
  -3.25032892  7.51062563  7.17273673
  -3.25415429  7.50082471 12.39510494
  -4.87412344 10.31480996  1.98297517
  -4.86653705 10.30998022  7.17273673
  -4.87693757 10.31156781 12.39510494
   3.24869889  1.87706992  1.98297517
   3.25667476  1.87291477  7.17273673
   3.25009961  1.88112810 12.39510494
   1.62442694  4.68901007  1.98665084
   1.63311322  4.69402509  7.18024148
   1.62808032  4.69111935 12.40006112
   0.00135141  7.50164074  1.98297517
   0.00174089  7.51062563  7.17273673
   0.00556626  7.50082471 12.39510494
  -1.62429385 10.31565362  1.97969076
  -1.62429385 10.31565362  7.17361215
  -1.62429385 10.31565362 12.38817159
   6.49706675  1.87706992  1.98297517
   6.48909087  1.87291477  7.17273673
   6.49566603  1.88112810 12.39510494
   4.87288265  4.69231735  2.02241488
   4.87288265  4.75491567  7.27315803
   4.87288265  4.71534879 12.32879521
   3.25151891  7.50060172  2.02241488
   3.30573065  7.46930256  7.27315803
   3.27146472  7.48908600 12.32879521
   1.62553526 10.31480996  1.98297517
   1.61794886 10.30998022  7.17273673
   1.62834939 10.31156781 12.39510494
   9.74540074  1.87536283  1.98117938
   9.73965853  1.87204756  7.17653079
   9.74596697  1.87568974 12.38500084
   8.12133874  4.68901007  1.98665084
   8.11265246  4.69402509  7.18024148
   8.11768536  4.69111935 12.40006112
   6.49424662  7.50060172  2.02241488
   6.44003488  7.46930256  7.27315803
   6.47430080  7.48908600 12.32879521
   4.87288288 10.31550065  1.98665084
   4.87288288 10.30547061  7.18024148
   4.87288288 10.31128209 12.40006112
   4.87288352  6.56450647  7.79065182
 


--------------------------------------------------------------------------------------------------------


 use parallel FFT for orbitals z direction half grid
 k-point   1 :   0.0000 0.0000 0.0000  plane waves:   20744

 maximum and minimum number of plane-waves per node :      2599     2585

 maximum number of plane-waves:     20744
 maximum index in each direction: 
   IXMAX=   21   IYMAX=   21   IZMAX=   25
   IXMIN=  -21   IYMIN=  -21   IZMIN=    0


 real space projection operators:
  total allocation   :      30020.25 KBytes
  max/ min on nodes  :       4074.81       3462.84


 parallel 3D FFT for wavefunctions:
    minimum data exchange during FFTs selected (reduces bandwidth)
 parallel 3D FFT for charge:
    minimum data exchange during FFTs selected (reduces bandwidth)

 
 Radii for the augmentation spheres in the non-local exchange
 for species   1 augmentation radius   1.190 (default was   0.952)
       energy cutoff for augmentation   1600.0
 for species   2 augmentation radius   0.902 (default was   0.722)
       energy cutoff for augmentation   1600.0
 for species   3 augmentation radius   1.352 (default was   1.082)
       energy cutoff for augmentation   1600.0

 real space projection operators:
  total allocation   :      22042.80 KBytes
  max/ min on nodes  :       2922.98       2502.70

 Maximum index for augmentation-charges in exchange          197
  SETUP_FOCK is finished

 total amount of memory used by VASP MPI-rank0    52309. kBytes
=======================================================================

   base      :      30000. kBytes
   nonlr-proj:       8598. kBytes
[...]
      4.87288     10.31511      1.98637        -0.000000     -0.000432     -0.000667
      4.87288     10.30536      7.18044         0.000000      0.001668      0.000180
      4.87288     10.31115     12.39983         0.000000      0.001371      0.000959
      4.87288      6.56451      7.79152         0.000000      0.000000      0.005709
 -----------------------------------------------------------------------------------
    total drift:                                0.213856      0.125410      0.155577


--------------------------------------------------------------------------------------------------------



  FREE ENERGIE OF THE ION-ELECTRON SYSTEM (eV)
  ---------------------------------------------------
  free  energy   TOTEN  =     -1223.28122392 eV

  energy  without entropy=    -1223.28122392  energy(sigma->0) =    -1223.28122392
 
 d Force = 0.6583814E-04[ 0.259E-04, 0.106E-03]  d Energy = 0.6664495E-04-0.807E-06
 d Force = 0.2947272E+00[ 0.293E+00, 0.296E+00]  d Ewald  = 0.2947208E+00 0.645E-05


--------------------------------------------------------------------------------------------------------


    POTLOK:  cpu time      0.9698: real time      0.9791


--------------------------------------------------------------------------------------------------------


 Conjugate gradient step on ions:
 trial-energy change:   -0.000067  1 .order   -0.000066   -0.000106   -0.000026
  (g-gl).g = 0.829E-04      g.g   = 0.998E-04  gl.gl    = 0.236E-03
 g(Force)  = 0.998E-04   g(Stress)= 0.000E+00 ortho     = 0.170E-04
 gamma     =   0.35053
 trial     =   0.99946
 opt step  =   1.32410  (harmonic =   1.32410) maximal distance =0.00095057
 next E    = -1223.281227   (d E  =  -0.00007)


--------------------------------------------------------------------------------------------------------


  
 reached required accuracy - stopping structural energy minimisation
 writing wavefunctions
     LOOP+:  cpu time   2380.6480: real time   2439.3808
    4ORBIT:  cpu time      0.0000: real time      0.0000



 total charge

# of ion       s       p       d       tot
------------------------------------------
    1        0.408   0.479   9.952  10.839
    2        0.408   0.476   9.950  10.833
    3        0.407   0.474   9.949  10.830
    4        0.408   0.479   9.952  10.839
    5        0.407   0.475   9.949  10.831
    6        0.407   0.475   9.950  10.832
    7        0.408   0.479   9.952  10.839
    8        0.408   0.476   9.950  10.833
    9        0.407   0.474   9.949  10.830
   10        0.408   0.479   9.952  10.839
   11        0.408   0.479   9.952  10.838
   12        0.408   0.476   9.950  10.834
   13        0.408   0.479   9.952  10.839
   14        0.408   0.479   9.952  10.838
   15        0.408   0.476   9.950  10.834
   16        0.408   0.477   9.951  10.836
   17        0.415   0.476   9.947  10.838
   18        0.405   0.470   9.948  10.823
   19        0.408   0.477   9.951  10.836
   20        0.415   0.476   9.947  10.838
   21        0.405   0.470   9.948  10.823
   22        0.408   0.479   9.952  10.839
   23        0.408   0.479   9.952  10.838
   24        0.408   0.476   9.950  10.834
   25        0.408   0.479   9.952  10.839
   26        0.408   0.476   9.950  10.833
   27        0.407   0.474   9.949  10.830
   28        0.408   0.477   9.951  10.836
   29        0.415   0.476   9.947  10.838
   30        0.405   0.470   9.948  10.823
   31        0.408   0.471   9.947  10.827
   32        0.408   0.479   9.950  10.837
   33        0.408   0.477   9.951  10.836
   34        0.415   0.476   9.947  10.838
   35        0.405   0.470   9.948  10.823
   36        0.408   0.479   9.952  10.839
   37        0.407   0.475   9.949  10.831
   38        0.407   0.475   9.950  10.832
   39        0.408   0.479   9.952  10.839
   40        0.407   0.475   9.949  10.831
   41        0.407   0.475   9.950  10.832
   42        0.408   0.477   9.951  10.836
   43        0.415   0.476   9.947  10.838
   44        0.405   0.470   9.948  10.823
   45        0.408   0.477   9.951  10.836
   46        0.415   0.476   9.947  10.838
   47        0.405   0.470   9.948  10.823
   48        0.408   0.478   9.951  10.837
   49        0.408   0.479   9.952  10.839
   50        0.406   0.473   9.949  10.828
   51        0.408   0.478   9.951  10.837
   52        0.408   0.479   9.952  10.839
   53        0.406   0.473   9.949  10.828
   54        0.407   0.476   9.950  10.833
   55        0.409   0.480   9.952  10.841
   56        0.407   0.472   9.947  10.826
   57        0.407   0.476   9.950  10.833
   58        0.409   0.480   9.952  10.841
   59        0.407   0.472   9.947  10.826
   60        0.407   0.476   9.950  10.833
   61        0.409   0.480   9.952  10.841
   62        0.407   0.472   9.947  10.826
   63        0.406   0.474   9.949  10.829
   64        0.409   0.480   9.953  10.842
   65        0.408   0.477   9.950  10.835
   66        0.407   0.476   9.950  10.833
   67        0.409   0.480   9.952  10.841
   68        0.407   0.472   9.947  10.826
   69        0.408   0.478   9.951  10.838
   70        0.408   0.478   9.951  10.837
   71        0.407   0.473   9.949  10.829
   72        0.407   0.476   9.950  10.833
   73        0.409   0.480   9.952  10.841
   74        0.407   0.472   9.947  10.826
   75        0.407   0.474   9.949  10.830
   76        0.415   0.469   9.946  10.830
   77        0.426   0.435   9.904  10.765
   78        0.407   0.474   9.949  10.830
   79        0.415   0.469   9.946  10.830
   80        0.426   0.435   9.904  10.765
   81        0.407   0.476   9.950  10.833
   82        0.409   0.480   9.952  10.841
   83        0.407   0.472   9.947  10.826
   84        0.408   0.478   9.951  10.837
   85        0.408   0.479   9.952  10.839
   86        0.406   0.473   9.949  10.828
   87        0.406   0.474   9.949  10.829
   88        0.409   0.480   9.953  10.842
   89        0.408   0.477   9.950  10.835
   90        0.407   0.474   9.949  10.830
   91        0.415   0.469   9.946  10.830
   92        0.426   0.435   9.904  10.765
   93        0.406   0.474   9.949  10.829
   94        0.409   0.480   9.953  10.842
   95        0.408   0.477   9.950  10.835
   96        1.573   3.533   0.000   5.106
   97        1.574   3.524   0.000   5.098
   98        1.573   3.530   0.000   5.103
   99        1.573   3.533   0.000   5.105
  100        1.573   3.527   0.000   5.100
  101        1.573   3.530   0.000   5.103
  102        1.573   3.533   0.000   5.106
  103        1.574   3.524   0.000   5.098
  104        1.573   3.530   0.000   5.103
  105        1.573   3.532   0.000   5.105
  106        1.573   3.528   0.000   5.102
  107        1.573   3.531   0.000   5.104
  108        1.573   3.532   0.000   5.105
  109        1.573   3.528   0.000   5.102
  110        1.573   3.531   0.000   5.104
  111        1.573   3.532   0.000   5.105
  112        1.576   3.523   0.000   5.099
  113        1.573   3.528   0.000   5.101
  114        1.573   3.532   0.000   5.105
  115        1.576   3.523   0.000   5.099
  116        1.573   3.528   0.000   5.101
  117        1.573   3.532   0.000   5.105
  118        1.573   3.528   0.000   5.102
  119        1.573   3.531   0.000   5.104
  120        1.573   3.533   0.000   5.106
  121        1.574   3.524   0.000   5.098
  122        1.573   3.530   0.000   5.103
  123        1.573   3.532   0.000   5.105
  124        1.576   3.523   0.000   5.099
  125        1.573   3.528   0.000   5.101
  126        1.575   3.524   0.000   5.099
  127        1.573   3.528   0.000   5.100
  128        1.573   3.532   0.000   5.105
  129        1.576   3.523   0.000   5.099
  130        1.573   3.528   0.000   5.101
  131        1.573   3.533   0.000   5.105
  132        1.573   3.527   0.000   5.100
  133        1.573   3.530   0.000   5.103
  134        1.573   3.533   0.000   5.105
  135        1.573   3.527   0.000   5.100
  136        1.573   3.530   0.000   5.103
  137        1.573   3.532   0.000   5.105
  138        1.576   3.523   0.000   5.099
  139        1.573   3.528   0.000   5.101
  140        1.573   3.532   0.000   5.105
  141        1.576   3.523   0.000   5.099
  142        1.573   3.528   0.000   5.101
  143        1.573   3.532   0.000   5.105
  144        1.573   3.529   0.000   5.102
  145        1.573   3.529   0.000   5.102
  146        1.573   3.532   0.000   5.105
  147        1.573   3.529   0.000   5.102
  148        1.573   3.529   0.000   5.102
  149        1.573   3.532   0.000   5.105
  150        1.573   3.532   0.000   5.105
  151        1.573   3.529   0.000   5.102
  152        1.573   3.532   0.000   5.105
  153        1.573   3.532   0.000   5.105
  154        1.573   3.529   0.000   5.102
  155        1.573   3.532   0.000   5.105
  156        1.573   3.532   0.000   5.105
  157        1.573   3.529   0.000   5.102
  158        1.573   3.531   0.000   5.104
  159        1.574   3.531   0.000   5.105
  160        1.573   3.531   0.000   5.104
  161        1.573   3.532   0.000   5.105
  162        1.573   3.532   0.000   5.105
  163        1.573   3.529   0.000   5.102
  164        1.573   3.533   0.000   5.106
  165        1.573   3.532   0.000   5.105
  166        1.573   3.529   0.000   5.102
  167        1.573   3.532   0.000   5.105
  168        1.573   3.532   0.000   5.105
  169        1.573   3.529   0.000   5.102
  170        1.573   3.527   0.000   5.101
  171        1.594   3.514   0.000   5.108
  172        1.575   3.520   0.000   5.094
  173        1.573   3.527   0.000   5.101
  174        1.594   3.514   0.000   5.108
  175        1.575   3.520   0.000   5.094
  176        1.573   3.532   0.000   5.105
  177        1.573   3.532   0.000   5.105
  178        1.573   3.529   0.000   5.102
  179        1.573   3.532   0.000   5.105
  180        1.573   3.529   0.000   5.102
  181        1.573   3.529   0.000   5.102
  182        1.573   3.531   0.000   5.104
  183        1.574   3.531   0.000   5.105
  184        1.573   3.531   0.000   5.104
  185        1.573   3.527   0.000   5.101
  186        1.594   3.514   0.000   5.108
  187        1.575   3.520   0.000   5.094
  188        1.573   3.531   0.000   5.104
  189        1.574   3.531   0.000   5.105
  190        1.573   3.531   0.000   5.104
  191        2.351   6.202   3.800  12.353
--------------------------------------------------
tot        190.716 386.521 948.8921526.129



 magnetization (x)

# of ion       s       p       d       tot
------------------------------------------
    1        0.000   0.000  -0.000   0.000
    2       -0.000   0.000   0.000  -0.000
    3        0.000   0.000  -0.000   0.000
    4        0.000   0.000  -0.000   0.000
    5        0.000   0.000  -0.000   0.000
    6        0.000   0.000   0.000   0.000
    7        0.000   0.000  -0.000   0.000
    8       -0.000   0.000   0.000  -0.000
    9        0.000   0.000  -0.000   0.000
   10        0.000   0.000   0.000   0.000
   11       -0.000  -0.000  -0.000  -0.000
   12        0.000   0.000   0.000   0.000
   13        0.000   0.000   0.000   0.000
   14       -0.000  -0.000  -0.000  -0.000
   15        0.000   0.000   0.000   0.000
   16        0.000  -0.000  -0.000  -0.000
   17       -0.000  -0.000  -0.000  -0.000
   18        0.000   0.000   0.000   0.000
   19        0.000  -0.000  -0.000  -0.000
   20       -0.000  -0.000  -0.000  -0.000
   21        0.000   0.000   0.000   0.000
   22        0.000   0.000   0.000   0.000
   23       -0.000  -0.000  -0.000  -0.000
   24        0.000   0.000   0.000   0.000
   25        0.000   0.000  -0.000   0.000
   26       -0.000   0.000   0.000  -0.000
   27        0.000   0.000  -0.000   0.000
   28        0.000  -0.000  -0.000  -0.000
   29       -0.000  -0.000  -0.000  -0.000
   30        0.000   0.000   0.000   0.000
   31        0.000   0.000  -0.000   0.000
   32       -0.000  -0.000  -0.000  -0.000
   33        0.000  -0.000  -0.000  -0.000
   34       -0.000  -0.000  -0.000  -0.000
   35        0.000   0.000   0.000   0.000
   36        0.000   0.000  -0.000   0.000
   37        0.000   0.000  -0.000   0.000
   38        0.000   0.000   0.000   0.000
   39        0.000   0.000  -0.000   0.000
   40        0.000   0.000  -0.000   0.000
   41        0.000   0.000   0.000   0.000
   42        0.000  -0.000  -0.000  -0.000
   43       -0.000  -0.000  -0.000  -0.000
   44        0.000   0.000   0.000   0.000
   45        0.000  -0.000  -0.000  -0.000
   46       -0.000  -0.000  -0.000  -0.000
   47        0.000   0.000   0.000   0.000
   48        0.000  -0.000   0.000   0.000
   49        0.000   0.000  -0.000   0.000
   50        0.000  -0.000  -0.000   0.000
   51        0.000  -0.000   0.000   0.000
   52        0.000   0.000  -0.000   0.000
   53        0.000  -0.000  -0.000   0.000
   54        0.000   0.000   0.000   0.000
   55        0.000   0.000   0.000   0.000
   56        0.000   0.000   0.000   0.000
   57        0.000   0.000   0.000   0.000
   58        0.000   0.000   0.000   0.000
   59        0.000   0.000   0.000   0.000
   60        0.000   0.000   0.000   0.000
   61        0.000   0.000   0.000   0.000
   62        0.000   0.000   0.000   0.000
   63        0.000  -0.000   0.000   0.000
   64        0.000   0.000   0.000   0.000
   65       -0.000  -0.000  -0.000  -0.000
   66        0.000   0.000   0.000   0.000
   67        0.000   0.000   0.000   0.000
   68        0.000   0.000   0.000   0.000
   69        0.000   0.000   0.000   0.000
   70        0.000  -0.000   0.000   0.000
   71        0.000   0.000   0.000   0.000
   72        0.000   0.000   0.000   0.000
   73        0.000   0.000   0.000   0.000
   74        0.000   0.000   0.000   0.000
   75        0.000  -0.000   0.000   0.000
   76        0.000  -0.000  -0.000  -0.000
   77        0.000   0.000   0.000   0.000
   78        0.000  -0.000   0.000   0.000
   79        0.000  -0.000  -0.000  -0.000
   80        0.000   0.000   0.000   0.000
   81        0.000   0.000   0.000   0.000
   82        0.000   0.000   0.000   0.000
   83        0.000   0.000   0.000   0.000
   84        0.000  -0.000   0.000   0.000
   85        0.000   0.000  -0.000   0.000
   86        0.000  -0.000  -0.000   0.000
   87        0.000  -0.000   0.000   0.000
   88        0.000   0.000   0.000   0.000
   89       -0.000  -0.000  -0.000  -0.000
   90        0.000  -0.000   0.000   0.000
   91        0.000  -0.000  -0.000  -0.000
   92        0.000   0.000   0.000   0.000
   93        0.000  -0.000   0.000   0.000
   94        0.000   0.000   0.000   0.000
   95       -0.000  -0.000  -0.000  -0.000
   96        0.000  -0.000   0.000  -0.000
   97        0.000   0.000   0.000   0.000
   98        0.000   0.000   0.000   0.000
   99        0.000  -0.000   0.000  -0.000
  100        0.000  -0.000   0.000   0.000
  101        0.000  -0.000   0.000   0.000
  102        0.000  -0.000   0.000  -0.000
  103        0.000   0.000   0.000   0.000
  104        0.000   0.000   0.000   0.000
  105        0.000   0.000   0.000   0.000
  106        0.000   0.000   0.000   0.000
  107        0.000   0.000   0.000   0.000
  108        0.000   0.000   0.000   0.000
  109        0.000   0.000   0.000   0.000
  110        0.000   0.000   0.000   0.000
  111       -0.000  -0.000   0.000  -0.000
  112        0.000   0.000   0.000   0.000
  113        0.000   0.000   0.000   0.000
  114       -0.000  -0.000   0.000  -0.000
  115        0.000   0.000   0.000   0.000
  116        0.000   0.000   0.000   0.000
  117        0.000   0.000   0.000   0.000
  118        0.000   0.000   0.000   0.000
  119        0.000   0.000   0.000   0.000
  120        0.000  -0.000   0.000  -0.000
  121        0.000   0.000   0.000   0.000
  122        0.000   0.000   0.000   0.000
  123       -0.000  -0.000   0.000  -0.000
  124        0.000   0.000   0.000   0.000
  125        0.000   0.000   0.000   0.000
  126        0.000   0.000   0.000   0.000
  127        0.000  -0.000   0.000  -0.000
  128       -0.000  -0.000   0.000  -0.000
  129        0.000   0.000   0.000   0.000
  130        0.000   0.000   0.000   0.000
  131        0.000  -0.000   0.000  -0.000
  132        0.000  -0.000   0.000   0.000
  133        0.000  -0.000   0.000   0.000
  134        0.000  -0.000   0.000  -0.000
  135        0.000  -0.000   0.000   0.000
  136        0.000  -0.000   0.000   0.000
  137       -0.000  -0.000   0.000  -0.000
  138        0.000   0.000   0.000   0.000
  139        0.000   0.000   0.000   0.000
  140       -0.000  -0.000   0.000  -0.000
  141        0.000   0.000   0.000   0.000
  142        0.000   0.000   0.000   0.000
  143        0.000   0.000   0.000   0.000
  144       -0.000  -0.000   0.000  -0.000
  145        0.000  -0.000   0.000   0.000
  146        0.000   0.000   0.000   0.000
  147       -0.000  -0.000   0.000  -0.000
  148        0.000  -0.000   0.000   0.000
  149        0.000  -0.000   0.000  -0.000
  150        0.000   0.000   0.000   0.000
  151        0.000   0.000   0.000   0.000
  152        0.000  -0.000   0.000  -0.000
  153        0.000   0.000   0.000   0.000
  154        0.000   0.000   0.000   0.000
  155        0.000  -0.000   0.000  -0.000
  156        0.000   0.000   0.000   0.000
  157        0.000   0.000   0.000   0.000
  158        0.000  -0.000   0.000  -0.000
  159        0.000   0.000   0.000   0.000
  160        0.000   0.000   0.000   0.000
  161        0.000  -0.000   0.000  -0.000
  162        0.000   0.000   0.000   0.000
  163        0.000   0.000   0.000   0.000
  164        0.000  -0.000   0.000  -0.000
  165        0.000   0.000   0.000   0.000
  166        0.000  -0.000   0.000   0.000
  167        0.000  -0.000   0.000  -0.000
  168        0.000   0.000   0.000   0.000
  169        0.000   0.000   0.000   0.000
  170        0.000  -0.000   0.000   0.000
  171       -0.000  -0.000   0.000  -0.000
  172        0.000   0.000   0.000   0.000
  173        0.000  -0.000   0.000   0.000
  174       -0.000  -0.000   0.000  -0.000
  175        0.000   0.000   0.000   0.000
  176        0.000  -0.000   0.000  -0.000
  177        0.000   0.000   0.000   0.000
  178        0.000   0.000   0.000   0.000
  179        0.000   0.000   0.000   0.000
  180       -0.000  -0.000   0.000  -0.000
  181        0.000  -0.000   0.000   0.000
  182        0.000  -0.000   0.000  -0.000
  183        0.000   0.000   0.000   0.000
  184        0.000   0.000   0.000   0.000
  185        0.000  -0.000   0.000   0.000
  186       -0.000  -0.000   0.000  -0.000
  187        0.000   0.000   0.000   0.000
  188        0.000  -0.000   0.000  -0.000
  189        0.000   0.000   0.000   0.000
  190        0.000   0.000   0.000   0.000
  191       -0.000   0.000  -0.001  -0.001
--------------------------------------------------
tot          0.000  -0.000  -0.001  -0.001
 

 total amount of memory used by VASP MPI-rank0   141848. kBytes
=======================================================================

   base      :      30000. kBytes
   nonlr-proj:       8598. kBytes
   fftplans  :       2267. kBytes
   grid      :       5113. kBytes
   one-center:        373. kBytes
   HF        :        129. kBytes
   wavefun   :       5829. kBytes
   fock_wrk  :      89539. kBytes
 
  
  
 General timing and accounting informations for this job:
 ========================================================
  
                  Total CPU time used (sec):    11607.287
                            User time (sec):    10065.399
                          System time (sec):     1541.888
                         Elapsed time (sec):    11989.784
  
                   Maximum memory used (kb):      783124.
                   Average memory used (kb):          N/A
  
                          Minor page faults:      1832824
                          Major page faults:         1380
                 Voluntary context switches:       815506
