
     Program PWSCF v.7.1 starts on  2Dec2024 at 17:50:54 

     This program is part of the open-source Quantum ESPRESSO suite
     for quantum simulation of materials; please cite
         "P. Giannozzi et al., J. Phys.:Condens. Matter 21 395502 (2009);
         "P. Giannozzi et al., J. Phys.:Condens. Matter 29 465901 (2017);
         "P. Giannozzi et al., J. Chem. Phys. 152 154105 (2020);
          URL http://www.quantum-espresso.org", 
     in publications or presentations arising from this work. More details at
     http://www.quantum-espresso.org/quote

     Parallel version (MPI), running on   256 processors

     MPI processes distributed on     8 nodes
     185127 MiB available memory on the printing compute node when the environment starts
 
     Reading input from scf.in
Warning: card &CELL ignored
Warning: card / ignored

     Current dimensions of program PWSCF are:
     Max number of different atomic species (ntypx) = 10
     Max number of k-points (npk) =  40000
     Max angular momentum in pseudopotentials (lmaxx) =  4

     IMPORTANT: XC functional enforced from input :
     Exchange-correlation= PBE0
                           (   6   4   8   4   0   0   0)
     EXX-fraction              =        0.25
     Any further DFT definition will be discarded
     Please, verify this is what you really want


     gamma-point specific algorithms are used
 
     K-points division:     npool     =       2
     band groups division:  nbgrp     =       4
     R & G space division:  proc/nbgrp/npool/nimage =      32
     Subspace diagonalization in iterative solution of the eigenvalue problem:
     a serial algorithm will be used

     EXX: q-point mesh:     1    1    1
     EXX: grid of k+q points same as grid of k-points
 
     Parallelization info
     --------------------
     sticks:   dense  smooth     PW     G-vecs:    dense   smooth      PW
     Min         414     414    102                46530    46530    5806
     Max         416     416    106                46540    46540    5824
     Sum       13273   13273   3319              1489031  1489031  186077
 
     Using Slab Decomposition
 


     bravais-lattice index     =            0
     lattice parameter (alat)  =      24.5558  a.u.
     unit-cell volume          =   15406.2245 (a.u.)^3
     number of atoms/cell      =          191
     number of atomic types    =            3
     number of electrons       =      2482.00
     number of Kohn-Sham states=         1260
     kinetic-energy cutoff     =      80.0000  Ry
     charge density cutoff     =     320.0000  Ry
     cutoff for Fock operator  =     160.0000  Ry
     scf convergence threshold =      1.0E-09
     mixing beta               =       0.4000
     number of iterations used =            8  plain     mixing
     Exchange-correlation= PBE0
                           (   6   4   8   4   0   0   0)
     EXX-fraction              =        0.25

     celldm(1)=  24.555771  celldm(2)=   0.000000  celldm(3)=   0.000000
     celldm(4)=   0.000000  celldm(5)=   0.000000  celldm(6)=   0.000000

     crystal axes: (cart. coord. in units of alat)
               a(1) = (   1.000000   0.000000   0.000000 )  
               a(2) = (  -0.500000   0.866025   0.000000 )  
               a(3) = (   0.000000   0.000000   1.201448 )  

     reciprocal axes: (cart. coord. in units 2 pi/alat)
               b(1) = (  1.000000  0.577350  0.000000 )  
               b(2) = (  0.000000  1.154701  0.000000 )  
               b(3) = (  0.000000  0.000000  0.832329 )  


     PseudoPot. # 1 for Zn read from file:
     ~/Pseudopotential/pseudo-ONCV-proj/Zn_ONCV_PBE-1.0.upf
     MD5 check sum: Not computed, couldn't open file
     Pseudo is Norm-conserving, Zval = 20.0
     Generated using ONCVPSP code by D. R. Hamann
     Using radial grid of 1326 points,  6 beta functions with: 
                l(1) =   0
                l(2) =   0
                l(3) =   1
                l(4) =   1
                l(5) =   2
                l(6) =   2

     PseudoPot. # 2 for O  read from file:
     ~/Pseudopotential/pseudo-ONCV-proj/O_ONCV_PBE-1.0.upf
     MD5 check sum: Not computed, couldn't open file
     Pseudo is Norm-conserving, Zval =  6.0
     Generated using ONCVPSP code by D. R. Hamann
     Using radial grid of  936 points,  4 beta functions with: 
                l(1) =   0
                l(2) =   0
                l(3) =   1
                l(4) =   1

     PseudoPot. # 3 for Mo read from file:
     ~/Pseudopotential/pseudo-ONCV-proj/Mo_ONCV_PBE-1.0.upf
     MD5 check sum: Not computed, couldn't open file
     Pseudo is Norm-conserving, Zval = 14.0
     Generated using ONCVPSP code by D. R. Hamann
     Using radial grid of 1526 points,  6 beta functions with: 
                l(1) =   0
                l(2) =   0
                l(3) =   1
                l(4) =   1
                l(5) =   2
                l(6) =   2

     atomic species   valence    mass     pseudopotential
        Zn            20.00    65.39000     Zn( 1.00)
        O              6.00    15.99940     O ( 1.00)
        Mo            14.00    95.94000     Mo( 1.00)

     Starting magnetic structure 
     atomic species   magnetization
        Zn           0.500
        O            0.000
        Mo           0.000

     No symmetry found


                                    s                        frac. trans.

      isym =  1     identity                                     

 cryst.   s( 1) = (     1          0          0      )
                  (     0          1          0      )
                  (     0          0          1      )

 cart.    s( 1) = (  1.0000000 -0.0000000  0.0000000 )
                  (  0.0000000  1.0000000  0.0000000 )
                  (  0.0000000  0.0000000  1.0000000 )


   Cartesian axes

     site n.     atom                  positions (alat units)
         1           Zn  tau(   1) = (   0.1248822   0.0722368   0.1989028  )
         2           Zn  tau(   2) = (   0.1250514   0.0721391   0.6004177  )
         3           Zn  tau(   3) = (   0.1247842   0.0722934   1.0016199  )
         4           Zn  tau(   4) = (  -0.0004273   0.2884284   0.1990914  )
         5           Zn  tau(   5) = (  -0.0011703   0.2879995   0.6002024  )
         6           Zn  tau(   6) = (  -0.0002765   0.2885155   1.0016818  )
         7           Zn  tau(   7) = (  -0.1250000   0.5050454   0.1989028  )
         8           Zn  tau(   8) = (  -0.1250000   0.5052407   0.6004177  )
         9           Zn  tau(   9) = (  -0.1250000   0.5049323   1.0016199  )
        10           Zn  tau(  10) = (  -0.2497785   0.7218156   0.1988997  )
        11           Zn  tau(  11) = (  -0.2491074   0.7222031   0.6008886  )
        12           Zn  tau(  12) = (  -0.2498000   0.7218032   1.0017722  )
        13           Zn  tau(  13) = (   0.3750000   0.0719131   0.1988997  )
        14           Zn  tau(  14) = (   0.3750000   0.0711382   0.6008886  )
        15           Zn  tau(  15) = (   0.3750000   0.0719378   1.0017722  )
        16           Zn  tau(  16) = (   0.2490267   0.2879220   0.1991898  )
        17           Zn  tau(  17) = (   0.2436414   0.2833220   0.6028030  )
        18           Zn  tau(  18) = (   0.2504754   0.2889977   1.0014262  )
        19           Zn  tau(  19) = (   0.1238612   0.5047151   0.1991898  )
        20           Zn  tau(  20) = (   0.1171848   0.5023512   0.6028030  )
        21           Zn  tau(  21) = (   0.1255171   0.5054319   1.0014262  )
        22           Zn  tau(  22) = (  -0.0002213   0.7218156   0.1988997  )
        23           Zn  tau(  23) = (  -0.0008925   0.7222031   0.6008886  )
        24           Zn  tau(  24) = (  -0.0001999   0.7218032   1.0017722  )
        25           Zn  tau(  25) = (   0.6251179   0.0722368   0.1989028  )
        26           Zn  tau(  26) = (   0.6249487   0.0721391   0.6004177  )
        27           Zn  tau(  27) = (   0.6252158   0.0722934   1.0016199  )
        28           Zn  tau(  28) = (   0.5009734   0.2879220   0.1991898  )
        29           Zn  tau(  29) = (   0.5063586   0.2833220   0.6028030  )
        30           Zn  tau(  30) = (   0.4995246   0.2889977   1.0014262  )
        31           Zn  tau(  31) = (   0.3750001   0.5051814   0.1998466  )
        32           Zn  tau(  32) = (   0.3750001   0.5051814   1.0031125  )
        33           Zn  tau(  33) = (   0.2498345   0.7229072   0.1991898  )
        34           Zn  tau(  34) = (   0.2485435   0.7298710   0.6028030  )
        35           Zn  tau(  35) = (   0.2500417   0.7211148   1.0014262  )
        36           Zn  tau(  36) = (   0.8750000   0.0726622   0.1990914  )
        37           Zn  tau(  37) = (   0.8750000   0.0735201   0.6002024  )
        38           Zn  tau(  38) = (   0.8750000   0.0724881   1.0016818  )
        39           Zn  tau(  39) = (   0.7504274   0.2884284   0.1990914  )
        40           Zn  tau(  40) = (   0.7511703   0.2879995   0.6002024  )
        41           Zn  tau(  41) = (   0.7502765   0.2885155   1.0016818  )
        42           Zn  tau(  42) = (   0.6261389   0.5047151   0.1991898  )
        43           Zn  tau(  43) = (   0.6328153   0.5023512   0.6028030  )
        44           Zn  tau(  44) = (   0.6244830   0.5054319   1.0014262  )
        45           Zn  tau(  45) = (   0.5001656   0.7229072   0.1991898  )
        46           Zn  tau(  46) = (   0.5014567   0.7298710   0.6028030  )
        47           Zn  tau(  47) = (   0.4999584   0.7211148   1.0014262  )
        48           Zn  tau(  48) = (  -0.0000315   0.1443557  -0.0002453  )
        49           Zn  tau(  49) = (  -0.0000517   0.1443674   0.3991877  )
        50           Zn  tau(  50) = (  -0.0001206   0.1444072   0.8011226  )
        51           Zn  tau(  51) = (  -0.1250000   0.3608076  -0.0002453  )
        52           Zn  tau(  52) = (  -0.1250000   0.3607843   0.3991877  )
        53           Zn  tau(  53) = (  -0.1250000   0.3607046   0.8011226  )
        54           Zn  tau(  54) = (  -0.2500172   0.5773409  -0.0003960  )
        55           Zn  tau(  55) = (  -0.2487275   0.5779824   0.3987083  )
        56           Zn  tau(  56) = (  -0.2493140   0.5777958   0.8022841  )
        57           Zn  tau(  57) = (  -0.3750166   0.7938464  -0.0003960  )
        58           Zn  tau(  58) = (  -0.3738162   0.7946425   0.3987083  )
        59           Zn  tau(  59) = (  -0.3742712   0.7942279   0.8022841  )
        60           Zn  tau(  60) = (   0.2500005   0.1443571  -0.0003960  )
        61           Zn  tau(  61) = (   0.2499113   0.1429195   0.3987083  )
        62           Zn  tau(  62) = (   0.2500429   0.1435208   0.8022841  )
        63           Zn  tau(  63) = (   0.1250065   0.3608477  -0.0003937  )
        64           Zn  tau(  64) = (   0.1238025   0.3601525   0.3989949  )
        65           Zn  tau(  65) = (   0.1240015   0.3602674   0.8031849  )
        66           Zn  tau(  66) = (   0.0000172   0.5773409  -0.0003960  )
        67           Zn  tau(  67) = (  -0.0012724   0.5779824   0.3987083  )
        68           Zn  tau(  68) = (  -0.0006859   0.5777958   0.8022841  )
        69           Zn  tau(  69) = (  -0.1250000   0.7938566  -0.0003587  )
        70           Zn  tau(  70) = (  -0.1250000   0.7938566   0.3991979  )
        71           Zn  tau(  71) = (  -0.1250000   0.7938566   0.8012131  )
        72           Zn  tau(  72) = (   0.4999995   0.1443571  -0.0003960  )
        73           Zn  tau(  73) = (   0.5000887   0.1429195   0.3987083  )
        74           Zn  tau(  74) = (   0.4999571   0.1435208   0.8022841  )
        75           Zn  tau(  75) = (   0.3750000   0.3607041   0.0014411  )
        76           Zn  tau(  76) = (   0.3750000   0.3581688   0.3927474  )
        77           Zn  tau(  77) = (   0.3750000   0.3612644   0.7991035  )
        78           Zn  tau(  78) = (   0.2498789   0.5774201   0.0014411  )
        79           Zn  tau(  79) = (   0.2476832   0.5786878   0.3927474  )
        80           Zn  tau(  80) = (   0.2503642   0.5771400   0.7991035  )
        81           Zn  tau(  81) = (   0.1250167   0.7938464  -0.0003960  )
        82           Zn  tau(  82) = (   0.1238163   0.7946425   0.3987083  )
        83           Zn  tau(  83) = (   0.1242712   0.7942279   0.8022841  )
        84           Zn  tau(  84) = (   0.7500314   0.1443557  -0.0002453  )
        85           Zn  tau(  85) = (   0.7500516   0.1443674   0.3991877  )
        86           Zn  tau(  86) = (   0.7501206   0.1444072   0.8011226  )
        87           Zn  tau(  87) = (   0.6249935   0.3608477  -0.0003937  )
        88           Zn  tau(  88) = (   0.6261975   0.3601525   0.3989949  )
        89           Zn  tau(  89) = (   0.6259985   0.3602674   0.8031849  )
        90           Zn  tau(  90) = (   0.5001211   0.5774201   0.0014411  )
        91           Zn  tau(  91) = (   0.5023167   0.5786878   0.3927474  )
        92           Zn  tau(  92) = (   0.4996358   0.5771400   0.7991035  )
        93           Zn  tau(  93) = (   0.3750000   0.7938491  -0.0003937  )
        94           Zn  tau(  94) = (   0.3750000   0.7952394   0.3989949  )
        95           Zn  tau(  95) = (   0.3750000   0.7950096   0.8031849  )
        96           O   tau(  96) = (   0.1248019   0.0722831   0.3523528  )
        97           O   tau(  97) = (   0.1251542   0.0720798   0.7528135  )
        98           O   tau(  98) = (   0.1249991   0.0721693   1.1539537  )
        99           O   tau(  99) = (  -0.0001204   0.2886056   0.3525695  )
       100           O   tau( 100) = (   0.0003633   0.2888849   0.7525139  )
       101           O   tau( 101) = (   0.0001536   0.2887638   1.1539944  )
       102           O   tau( 102) = (  -0.1250000   0.5049527   0.3523528  )
       103           O   tau( 103) = (  -0.1250000   0.5053595   0.7528135  )
       104           O   tau( 104) = (  -0.1250000   0.5051804   1.1539537  )
       105           O   tau( 105) = (  -0.2499734   0.7217031   0.3523176  )
       106           O   tau( 106) = (  -0.2503600   0.7214799   0.7530979  )
       107           O   tau( 107) = (  -0.2500841   0.7216392   1.1540136  )
       108           O   tau( 108) = (   0.3750000   0.0721381   0.3523176  )
       109           O   tau( 109) = (   0.3750000   0.0725845   0.7530979  )
       110           O   tau( 110) = (   0.3750000   0.0722659   1.1540136  )
       111           O   tau( 111) = (   0.2497224   0.2885326   0.3538827  )
       112           O   tau( 112) = (   0.2505134   0.2899359   0.7532484  )
       113           O   tau( 113) = (   0.2506362   0.2891769   1.1538078  )
       114           O   tau( 114) = (   0.1247378   0.5050123   0.3538827  )
       115           O   tau( 115) = (   0.1263486   0.5049956   0.7532484  )
       116           O   tau( 116) = (   0.1257527   0.5054815   1.1538078  )
       117           O   tau( 117) = (  -0.0000265   0.7217031   0.3523176  )
       118           O   tau( 118) = (   0.0003601   0.7214799   0.7530979  )
       119           O   tau( 119) = (   0.0000842   0.7216392   1.1540136  )
       120           O   tau( 120) = (   0.6251981   0.0722831   0.3523528  )
       121           O   tau( 121) = (   0.6248458   0.0720798   0.7528135  )
       122           O   tau( 122) = (   0.6250010   0.0721693   1.1539537  )
       123           O   tau( 123) = (   0.5002776   0.2885326   0.3538827  )
       124           O   tau( 124) = (   0.4994867   0.2899359   0.7532484  )
       125           O   tau( 125) = (   0.4993639   0.2891769   1.1538078  )
       126           O   tau( 126) = (   0.3750001   0.5051814   0.3581641  )
       127           O   tau( 127) = (   0.3750001   0.5051814   1.1547457  )
       128           O   tau( 128) = (   0.2500154   0.7219994   0.3538827  )
       129           O   tau( 129) = (   0.2508352   0.7206128   0.7532484  )
       130           O   tau( 130) = (   0.2501165   0.7208860   1.1538078  )
       131           O   tau( 131) = (   0.8750000   0.0723079   0.3525695  )
       132           O   tau( 132) = (   0.8750000   0.0717492   0.7525139  )
       133           O   tau( 133) = (   0.8750000   0.0719914   1.1539944  )
       134           O   tau( 134) = (   0.7501205   0.2886056   0.3525695  )
       135           O   tau( 135) = (   0.7496367   0.2888849   0.7525139  )
       136           O   tau( 136) = (   0.7498464   0.2887638   1.1539944  )
       137           O   tau( 137) = (   0.6252623   0.5050123   0.3538827  )
       138           O   tau( 138) = (   0.6236515   0.5049956   0.7532484  )
       139           O   tau( 139) = (   0.6242474   0.5054815   1.1538078  )
       140           O   tau( 140) = (   0.4999847   0.7219994   0.3538827  )
       141           O   tau( 141) = (   0.4991649   0.7206128   0.7532484  )
       142           O   tau( 142) = (   0.4998836   0.7208860   1.1538078  )
       143           O   tau( 143) = (   0.0000178   0.1443273   0.1526284  )
       144           O   tau( 144) = (   0.0004194   0.1440954   0.5525312  )
       145           O   tau( 145) = (  -0.0000058   0.1443409   0.9531868  )
       146           O   tau( 146) = (  -0.1250000   0.3608645   0.1526284  )
       147           O   tau( 147) = (  -0.1250000   0.3613282   0.5525312  )
       148           O   tau( 148) = (  -0.1250000   0.3608372   0.9531868  )
       149           O   tau( 149) = (  -0.2500810   0.5773117   0.1526971  )
       150           O   tau( 150) = (  -0.2498952   0.5780095   0.5521679  )
       151           O   tau( 151) = (  -0.2504463   0.5772307   0.9537942  )
       152           O   tau( 152) = (  -0.3750739   0.7938057   0.1526971  )
       153           O   tau( 153) = (  -0.3743767   0.7936177   0.5521679  )
       154           O   tau( 154) = (  -0.3753266   0.7935298   0.9537942  )
       155           O   tau( 155) = (   0.2500071   0.1444270   0.1526971  )
       156           O   tau( 156) = (   0.2505185   0.1439172   0.5521679  )
       157           O   tau( 157) = (   0.2501197   0.1447838   0.9537942  )
       158           O   tau( 158) = (   0.1250161   0.3608532   0.1529243  )
       159           O   tau( 159) = (   0.1256488   0.3612185   0.5526736  )
       160           O   tau( 160) = (   0.1252991   0.3610166   0.9542576  )
       161           O   tau( 161) = (   0.0000811   0.5773117   0.1526971  )
       162           O   tau( 162) = (  -0.0001048   0.5780095   0.5521679  )
       163           O   tau( 163) = (   0.0004463   0.5772307   0.9537942  )
       164           O   tau( 164) = (  -0.1250000   0.7938566   0.1524726  )
       165           O   tau( 165) = (  -0.1250000   0.7938566   0.5523611  )
       166           O   tau( 166) = (  -0.1250000   0.7938566   0.9533293  )
       167           O   tau( 167) = (   0.4999929   0.1444270   0.1526971  )
       168           O   tau( 168) = (   0.4994815   0.1439172   0.5521679  )
       169           O   tau( 169) = (   0.4998803   0.1447838   0.9537942  )
       170           O   tau( 170) = (   0.3750000   0.3610049   0.1552713  )
       171           O   tau( 171) = (   0.3750000   0.3633648   0.5579193  )
       172           O   tau( 172) = (   0.3750000   0.3626700   0.9495430  )
       173           O   tau( 173) = (   0.2501394   0.5772697   0.1552713  )
       174           O   tau( 174) = (   0.2521832   0.5760898   0.5579193  )
       175           O   tau( 175) = (   0.2515814   0.5764372   0.9495430  )
       176           O   tau( 176) = (   0.1250739   0.7938057   0.1526971  )
       177           O   tau( 177) = (   0.1243767   0.7936177   0.5521679  )
       178           O   tau( 178) = (   0.1253266   0.7935298   0.9537942  )
       179           O   tau( 179) = (   0.7499822   0.1443273   0.1526284  )
       180           O   tau( 180) = (   0.7495805   0.1440954   0.5525312  )
       181           O   tau( 181) = (   0.7500058   0.1443409   0.9531868  )
       182           O   tau( 182) = (   0.6249839   0.3608532   0.1529243  )
       183           O   tau( 183) = (   0.6243512   0.3612185   0.5526736  )
       184           O   tau( 184) = (   0.6247009   0.3610166   0.9542576  )
       185           O   tau( 185) = (   0.4998606   0.5772697   0.1552713  )
       186           O   tau( 186) = (   0.4978168   0.5760898   0.5579193  )
       187           O   tau( 187) = (   0.4984186   0.5764372   0.9495430  )
       188           O   tau( 188) = (   0.3750000   0.7938380   0.1529243  )
       189           O   tau( 189) = (   0.3750000   0.7931074   0.5526736  )
       190           O   tau( 190) = (   0.3750000   0.7935113   0.9542576  )
       191           Mo  tau( 191) = (   0.3750001   0.5051814   0.5972453  )

   Crystallographic axes

     site n.     atom                  positions (cryst. coord.)
         1           Zn  tau(   1) = (  0.1665881  0.0834119  0.1655526  )
         2           Zn  tau(   2) = (  0.1667009  0.0832991  0.4997452  )
         3           Zn  tau(   3) = (  0.1665228  0.0834772  0.8336774  )
         4           Zn  tau(   4) = (  0.1660969  0.3330485  0.1657096  )
         5           Zn  tau(   5) = (  0.1651063  0.3325532  0.4995659  )
         6           Zn  tau(   6) = (  0.1662980  0.3331490  0.8337289  )
         7           Zn  tau(   7) = (  0.1665881  0.5831762  0.1655526  )
         8           Zn  tau(   8) = (  0.1667009  0.5834018  0.4997452  )
         9           Zn  tau(   9) = (  0.1665228  0.5830456  0.8336774  )
        10           Zn  tau(  10) = (  0.1669619  0.8334809  0.1655500  )
        11           Zn  tau(  11) = (  0.1678567  0.8339283  0.5001371  )
        12           Zn  tau(  12) = (  0.1669333  0.8334666  0.8338041  )
        13           Zn  tau(  13) = (  0.4165191  0.0830381  0.1655500  )
        14           Zn  tau(  14) = (  0.4160717  0.0821433  0.5001371  )
        15           Zn  tau(  15) = (  0.4165334  0.0830667  0.8338041  )
        16           Zn  tau(  16) = (  0.4152585  0.3324637  0.1657915  )
        17           Zn  tau(  17) = (  0.4072175  0.3271521  0.5017305  )
        18           Zn  tau(  18) = (  0.4173283  0.3337058  0.8335162  )
        19           Zn  tau(  19) = (  0.4152585  0.5827948  0.1657915  )
        20           Zn  tau(  20) = (  0.4072175  0.5800653  0.5017305  )
        21           Zn  tau(  21) = (  0.4173283  0.5836225  0.8335162  )
        22           Zn  tau(  22) = (  0.4165191  0.8334809  0.1655500  )
        23           Zn  tau(  23) = (  0.4160717  0.8339283  0.5001371  )
        24           Zn  tau(  24) = (  0.4165334  0.8334666  0.8338041  )
        25           Zn  tau(  25) = (  0.6668238  0.0834119  0.1655526  )
        26           Zn  tau(  26) = (  0.6665982  0.0832991  0.4997452  )
        27           Zn  tau(  27) = (  0.6669544  0.0834772  0.8336774  )
        28           Zn  tau(  28) = (  0.6672052  0.3324637  0.1657915  )
        29           Zn  tau(  29) = (  0.6699347  0.3271521  0.5017305  )
        30           Zn  tau(  30) = (  0.6663775  0.3337058  0.8335162  )
        31           Zn  tau(  31) = (  0.6666667  0.5833333  0.1663382  )
        32           Zn  tau(  32) = (  0.6666667  0.5833333  0.8349197  )
        33           Zn  tau(  33) = (  0.6672052  0.8347415  0.1657915  )
        34           Zn  tau(  34) = (  0.6699347  0.8427825  0.5017305  )
        35           Zn  tau(  35) = (  0.6663775  0.8326717  0.8335162  )
        36           Zn  tau(  36) = (  0.9169516  0.0839031  0.1657096  )
        37           Zn  tau(  37) = (  0.9174469  0.0848937  0.4995659  )
        38           Zn  tau(  38) = (  0.9168510  0.0837020  0.8337289  )
        39           Zn  tau(  39) = (  0.9169516  0.3330485  0.1657096  )
        40           Zn  tau(  40) = (  0.9174469  0.3325532  0.4995659  )
        41           Zn  tau(  41) = (  0.9168510  0.3331490  0.8337289  )
        42           Zn  tau(  42) = (  0.9175363  0.5827948  0.1657915  )
        43           Zn  tau(  43) = (  0.9228479  0.5800653  0.5017305  )
        44           Zn  tau(  44) = (  0.9162942  0.5836225  0.8335162  )
        45           Zn  tau(  45) = (  0.9175363  0.8347415  0.1657915  )
        46           Zn  tau(  46) = (  0.9228479  0.8427825  0.5017305  )
        47           Zn  tau(  47) = (  0.9162942  0.8326717  0.8335162  )
        48           Zn  tau(  48) = (  0.0833124  0.1666876 -0.0002041  )
        49           Zn  tau(  49) = (  0.0832989  0.1667011  0.3322555  )
        50           Zn  tau(  50) = (  0.0832529  0.1667471  0.6667976  )
        51           Zn  tau(  51) = (  0.0833124  0.4166247 -0.0002041  )
        52           Zn  tau(  52) = (  0.0832989  0.4165978  0.3322555  )
        53           Zn  tau(  53) = (  0.0832529  0.4165058  0.6667976  )
        54           Zn  tau(  54) = (  0.0833108  0.6666559 -0.0003296  )
        55           Zn  tau(  55) = (  0.0849708  0.6673967  0.3318565  )
        56           Zn  tau(  56) = (  0.0842765  0.6671811  0.6677644  )
        57           Zn  tau(  57) = (  0.0833108  0.9166549 -0.0003296  )
        58           Zn  tau(  58) = (  0.0849708  0.9175741  0.3318565  )
        59           Zn  tau(  59) = (  0.0842765  0.9170954  0.6677644  )
        60           Zn  tau(  60) = (  0.3333452  0.1666892 -0.0003296  )
        61           Zn  tau(  61) = (  0.3324259  0.1650292  0.3318565  )
        62           Zn  tau(  62) = (  0.3329046  0.1657235  0.6677644  )
        63           Zn  tau(  63) = (  0.3333420  0.4166710 -0.0003276  )
        64           Zn  tau(  64) = (  0.3317366  0.4158683  0.3320950  )
        65           Zn  tau(  65) = (  0.3320020  0.4160010  0.6685142  )
        66           Zn  tau(  66) = (  0.3333452  0.6666559 -0.0003296  )
        67           Zn  tau(  67) = (  0.3324259  0.6673967  0.3318565  )
        68           Zn  tau(  68) = (  0.3329046  0.6671811  0.6677644  )
        69           Zn  tau(  69) = (  0.3333333  0.9166667 -0.0002986  )
        70           Zn  tau(  70) = (  0.3333333  0.9166667  0.3322641  )
        71           Zn  tau(  71) = (  0.3333333  0.9166667  0.6668730  )
        72           Zn  tau(  72) = (  0.5833441  0.1666892 -0.0003296  )
        73           Zn  tau(  73) = (  0.5826033  0.1650292  0.3318565  )
        74           Zn  tau(  74) = (  0.5828189  0.1657235  0.6677644  )
        75           Zn  tau(  75) = (  0.5832526  0.4165053  0.0011995  )
        76           Zn  tau(  76) = (  0.5817888  0.4135777  0.3268951  )
        77           Zn  tau(  77) = (  0.5835761  0.4171523  0.6651171  )
        78           Zn  tau(  78) = (  0.5832526  0.6667474  0.0011995  )
        79           Zn  tau(  79) = (  0.5817888  0.6682112  0.3268951  )
        80           Zn  tau(  80) = (  0.5835761  0.6664239  0.6651171  )
        81           Zn  tau(  81) = (  0.5833441  0.9166549 -0.0003296  )
        82           Zn  tau(  82) = (  0.5826033  0.9175741  0.3318565  )
        83           Zn  tau(  83) = (  0.5828189  0.9170954  0.6677644  )
        84           Zn  tau(  84) = (  0.8333753  0.1666876 -0.0002041  )
        85           Zn  tau(  85) = (  0.8334022  0.1667011  0.3322555  )
        86           Zn  tau(  86) = (  0.8334942  0.1667471  0.6667976  )
        87           Zn  tau(  87) = (  0.8333290  0.4166710 -0.0003276  )
        88           Zn  tau(  88) = (  0.8341317  0.4158683  0.3320950  )
        89           Zn  tau(  89) = (  0.8339990  0.4160010  0.6685142  )
        90           Zn  tau(  90) = (  0.8334947  0.6667474  0.0011995  )
        91           Zn  tau(  91) = (  0.8364223  0.6682112  0.3268951  )
        92           Zn  tau(  92) = (  0.8328477  0.6664239  0.6651171  )
        93           Zn  tau(  93) = (  0.8333290  0.9166580 -0.0003276  )
        94           Zn  tau(  94) = (  0.8341317  0.9182634  0.3320950  )
        95           Zn  tau(  95) = (  0.8339990  0.9179980  0.6685142  )
        96           O   tau(  96) = (  0.1665346  0.0834654  0.2932735  )
        97           O   tau(  97) = (  0.1667695  0.0832305  0.6265886  )
        98           O   tau(  98) = (  0.1666661  0.0833340  0.9604693  )
        99           O   tau(  99) = (  0.1665061  0.3332530  0.2934539  )
       100           O   tau( 100) = (  0.1671511  0.3335756  0.6263392  )
       101           O   tau( 101) = (  0.1668715  0.3334357  0.9605031  )
       102           O   tau( 102) = (  0.1665346  0.5830692  0.2932735  )
       103           O   tau( 103) = (  0.1667695  0.5835389  0.6265886  )
       104           O   tau( 104) = (  0.1666661  0.5833321  0.9604693  )
       105           O   tau( 105) = (  0.1667020  0.8333510  0.2932442  )
       106           O   tau( 106) = (  0.1661867  0.8330933  0.6268253  )
       107           O   tau( 107) = (  0.1665545  0.8332772  0.9605191  )
       108           O   tau( 108) = (  0.4166490  0.0832980  0.2932442  )
       109           O   tau( 109) = (  0.4169067  0.0838133  0.6268253  )
       110           O   tau( 110) = (  0.4167228  0.0834455  0.9605191  )
       111           O   tau( 111) = (  0.4163068  0.3331688  0.2945469  )
       112           O   tau( 112) = (  0.4179080  0.3347892  0.6269506  )
       113           O   tau( 113) = (  0.4175925  0.3339127  0.9603478  )
       114           O   tau( 114) = (  0.4163068  0.5831380  0.2945469  )
       115           O   tau( 115) = (  0.4179080  0.5831188  0.6269506  )
       116           O   tau( 116) = (  0.4175925  0.5836798  0.9603478  )
       117           O   tau( 117) = (  0.4166490  0.8333510  0.2932442  )
       118           O   tau( 118) = (  0.4169067  0.8330933  0.6268253  )
       119           O   tau( 119) = (  0.4167228  0.8332772  0.9605191  )
       120           O   tau( 120) = (  0.6669308  0.0834654  0.2932735  )
       121           O   tau( 121) = (  0.6664611  0.0832305  0.6265886  )
       122           O   tau( 122) = (  0.6666679  0.0833340  0.9604693  )
       123           O   tau( 123) = (  0.6668620  0.3331688  0.2945469  )
       124           O   tau( 124) = (  0.6668812  0.3347892  0.6269506  )
       125           O   tau( 125) = (  0.6663202  0.3339127  0.9603478  )
       126           O   tau( 126) = (  0.6666667  0.5833333  0.2981104  )
       127           O   tau( 127) = (  0.6666667  0.5833333  0.9611285  )
       128           O   tau( 128) = (  0.6668620  0.8336932  0.2945469  )
       129           O   tau( 129) = (  0.6668812  0.8320920  0.6269506  )
       130           O   tau( 130) = (  0.6663202  0.8324075  0.9603478  )
       131           O   tau( 131) = (  0.9167470  0.0834939  0.2934539  )
       132           O   tau( 132) = (  0.9164245  0.0828489  0.6263392  )
       133           O   tau( 133) = (  0.9165643  0.0831286  0.9605031  )
       134           O   tau( 134) = (  0.9167470  0.3332530  0.2934539  )
       135           O   tau( 135) = (  0.9164245  0.3335756  0.6263392  )
       136           O   tau( 136) = (  0.9165643  0.3334357  0.9605031  )
       137           O   tau( 137) = (  0.9168313  0.5831380  0.2945469  )
       138           O   tau( 138) = (  0.9152109  0.5831188  0.6269506  )
       139           O   tau( 139) = (  0.9160873  0.5836798  0.9603478  )
       140           O   tau( 140) = (  0.9168313  0.8336932  0.2945469  )
       141           O   tau( 141) = (  0.9152109  0.8320920  0.6269506  )
       142           O   tau( 142) = (  0.9160873  0.8324075  0.9603478  )
       143           O   tau( 143) = (  0.0833452  0.1666548  0.1270371  )
       144           O   tau( 144) = (  0.0836130  0.1663870  0.4598878  )
       145           O   tau( 145) = (  0.0833295  0.1666705  0.7933651  )
       146           O   tau( 146) = (  0.0833452  0.4166904  0.1270371  )
       147           O   tau( 147) = (  0.0836130  0.4172259  0.4598878  )
       148           O   tau( 148) = (  0.0833295  0.4166589  0.7933651  )
       149           O   tau( 149) = (  0.0832300  0.6666221  0.1270942  )
       150           O   tau( 150) = (  0.0838187  0.6674279  0.4595854  )
       151           O   tau( 151) = (  0.0828180  0.6665287  0.7938707  )
       152           O   tau( 152) = (  0.0832300  0.9166079  0.1270942  )
       153           O   tau( 153) = (  0.0838187  0.9163909  0.4595854  )
       154           O   tau( 154) = (  0.0828180  0.9162894  0.7938707  )
       155           O   tau( 155) = (  0.3333921  0.1667700  0.1270942  )
       156           O   tau( 156) = (  0.3336092  0.1661813  0.4595854  )
       157           O   tau( 157) = (  0.3337106  0.1671820  0.7938707  )
       158           O   tau( 158) = (  0.3333548  0.4166774  0.1272833  )
       159           O   tau( 159) = (  0.3341984  0.4170992  0.4600063  )
       160           O   tau( 160) = (  0.3337321  0.4168661  0.7942563  )
       161           O   tau( 161) = (  0.3333921  0.6666221  0.1270942  )
       162           O   tau( 162) = (  0.3336092  0.6674279  0.4595854  )
       163           O   tau( 163) = (  0.3337106  0.6665287  0.7938707  )
       164           O   tau( 164) = (  0.3333333  0.9166667  0.1269074  )
       165           O   tau( 165) = (  0.3333333  0.9166667  0.4597462  )
       166           O   tau( 166) = (  0.3333333  0.9166667  0.7934837  )
       167           O   tau( 167) = (  0.5833779  0.1667700  0.1270942  )
       168           O   tau( 168) = (  0.5825721  0.1661813  0.4595854  )
       169           O   tau( 169) = (  0.5834713  0.1671820  0.7938707  )
       170           O   tau( 170) = (  0.5834263  0.4168526  0.1292368  )
       171           O   tau( 171) = (  0.5847888  0.4195776  0.4643725  )
       172           O   tau( 172) = (  0.5843876  0.4187752  0.7903323  )
       173           O   tau( 173) = (  0.5834263  0.6665737  0.1292368  )
       174           O   tau( 174) = (  0.5847888  0.6652112  0.4643725  )
       175           O   tau( 175) = (  0.5843876  0.6656124  0.7903323  )
       176           O   tau( 176) = (  0.5833779  0.9166079  0.1270942  )
       177           O   tau( 177) = (  0.5825721  0.9163909  0.4595854  )
       178           O   tau( 178) = (  0.5834713  0.9162894  0.7938707  )
       179           O   tau( 179) = (  0.8333096  0.1666548  0.1270371  )
       180           O   tau( 180) = (  0.8327741  0.1663870  0.4598878  )
       181           O   tau( 181) = (  0.8333411  0.1666705  0.7933651  )
       182           O   tau( 182) = (  0.8333226  0.4166774  0.1272833  )
       183           O   tau( 183) = (  0.8329008  0.4170992  0.4600063  )
       184           O   tau( 184) = (  0.8331339  0.4168661  0.7942563  )
       185           O   tau( 185) = (  0.8331474  0.6665737  0.1292368  )
       186           O   tau( 186) = (  0.8304224  0.6652112  0.4643725  )
       187           O   tau( 187) = (  0.8312248  0.6656124  0.7903323  )
       188           O   tau( 188) = (  0.8333226  0.9166452  0.1272833  )
       189           O   tau( 189) = (  0.8329008  0.9158017  0.4600063  )
       190           O   tau( 190) = (  0.8331339  0.9162679  0.7942563  )
       191           Mo  tau( 191) = (  0.6666667  0.5833333  0.4971046  )

     number of k points=     1  Gaussian smearing, width (Ry)=  0.0001
                       cart. coord. in units 2pi/alat
        k(    1) = (   0.0000000   0.0000000   0.0000000), wk =   1.0000000

                       cryst. coord.
        k(    1) = (   0.0000000   0.0000000   0.0000000), wk =   1.0000000

     Dense  grid:   744516 G-vectors     FFT dimensions: ( 144, 144, 180)

     Dynamical RAM for                 wfc:      55.91 MB

     Dynamical RAM for     wfc (w. buffer):      55.91 MB

     Dynamical RAM for                 EXX:     247.22 MB

     Dynamical RAM for           str. fact:       1.07 MB

     Dynamical RAM for           local pot:       0.00 MB

     Dynamical RAM for          nlocal pot:     110.40 MB

     Dynamical RAM for                qrad:       4.31 MB

     Dynamical RAM for          rho,v,vnew:       7.83 MB

     Dynamical RAM for               rhoin:       2.61 MB

     Dynamical RAM for            rho*nmix:      11.36 MB

     Dynamical RAM for           G-vectors:       1.51 MB

     Dynamical RAM for          h,s,v(r/c):     145.35 MB

     Dynamical RAM for          <psi|beta>:      23.92 MB

     Dynamical RAM for                 psi:     111.82 MB

     Dynamical RAM for                hpsi:     111.82 MB

     Dynamical RAM for      wfcinit/wfcrot:     160.03 MB

     Estimated static dynamical RAM per process >     437.96 MB

     Estimated max dynamical RAM per process >     842.23 MB

     Estimated total dynamical RAM >     209.14 GB
     EXX: ACE will be initialized later
     Generating pointlists ...
     new r_m :   0.0612 (alat units)  1.5039 (a.u.) for type    1
     new r_m :   0.0607 (alat units)  1.4907 (a.u.) for type    2
     new r_m :   0.0607 (alat units)  1.4907 (a.u.) for type    3

     Initial potential from superposition of free atoms

     starting charge    2483.9859, renormalised to    2482.0000
     Starting wfcs are 1340 randomized atomic wfcs

     total cpu time spent up to now is        8.3 secs

     Self-consistent Calculation

     iteration #  1     ecut=    80.00 Ry     beta= 0.40
     Davidson diagonalization with overlap

---- Real-time Memory Report at c_bands before calling an iterative solver
           520 MiB given to the printing process from OS
             0 MiB allocation reported by mallinfo(arena+hblkhd)
        177297 MiB available memory on the node where the printing process lives
------------------
     ethr =  1.00E-02,  avg # of iterations =  2.0

     total cpu time spent up to now is       30.0 secs

     total energy              =  -41127.99752867 Ry
     estimated scf accuracy    <     309.39453094 Ry

     total magnetization       =    38.00 Bohr mag/cell
     absolute magnetization    =    64.78 Bohr mag/cell

     iteration #  2     ecut=    80.00 Ry     beta= 0.40
     Davidson diagonalization with overlap

---- Real-time Memory Report at c_bands before calling an iterative solver
           740 MiB given to the printing process from OS
             0 MiB allocation reported by mallinfo(arena+hblkhd)
        176270 MiB available memory on the node where the printing process lives
------------------
     ethr =  1.00E-02,  avg # of iterations =  3.5

     total cpu time spent up to now is       54.0 secs

     total energy              =  -41185.07560553 Ry
     estimated scf accuracy    <     123.10201406 Ry

     total magnetization       =     2.00 Bohr mag/cell
     absolute magnetization    =    41.66 Bohr mag/cell

     iteration #  3     ecut=    80.00 Ry     beta= 0.40
     Davidson diagonalization with overlap

---- Real-time Memory Report at c_bands before calling an iterative solver
           744 MiB given to the printing process from OS
             0 MiB allocation reported by mallinfo(arena+hblkhd)
        176023 MiB available memory on the node where the printing process lives
------------------
     ethr =  4.96E-03,  avg # of iterations =  6.0

     total cpu time spent up to now is       84.6 secs

     total energy              =  -41178.71139789 Ry
     estimated scf accuracy    <     135.85080891 Ry

     total magnetization       =    16.00 Bohr mag/cell
     absolute magnetization    =    34.88 Bohr mag/cell

     iteration #  4     ecut=    80.00 Ry     beta= 0.40
     Davidson diagonalization with overlap

---- Real-time Memory Report at c_bands before calling an iterative solver
           750 MiB given to the printing process from OS
             0 MiB allocation reported by mallinfo(arena+hblkhd)
        175941 MiB available memory on the node where the printing process lives
------------------
     ethr =  4.96E-03,  avg # of iterations =  7.5

     total cpu time spent up to now is      121.4 secs

     total energy              =  -41170.05912036 Ry
     estimated scf accuracy    <     402.51730036 Ry

     total magnetization       =    22.00 Bohr mag/cell
     absolute magnetization    =    33.00 Bohr mag/cell

     iteration #  5     ecut=    80.00 Ry     beta= 0.40
     Davidson diagonalization with overlap

---- Real-time Memory Report at c_bands before calling an iterative solver
           757 MiB given to the printing process from OS
             0 MiB allocation reported by mallinfo(arena+hblkhd)
        175924 MiB available memory on the node where the printing process lives
------------------
     ethr =  4.96E-03,  avg # of iterations =  6.0

     total cpu time spent up to now is      156.8 secs

     total energy              =  -41209.47448203 Ry
     estimated scf accuracy    <      30.72258439 Ry

     total magnetization       =     4.00 Bohr mag/cell
     absolute magnetization    =    11.37 Bohr mag/cell

     iteration #  6     ecut=    80.00 Ry     beta= 0.40
     Davidson diagonalization with overlap

---- Real-time Memory Report at c_bands before calling an iterative solver
           764 MiB given to the printing process from OS
             0 MiB allocation reported by mallinfo(arena+hblkhd)
        175872 MiB available memory on the node where the printing process lives
------------------
     ethr =  1.24E-03,  avg # of iterations =  9.5

     total cpu time spent up to now is      192.1 secs

     total energy              =  -41211.46643810 Ry
     estimated scf accuracy    <       5.61742156 Ry

     total magnetization       =    -0.00 Bohr mag/cell
     absolute magnetization    =     5.12 Bohr mag/cell

     iteration #  7     ecut=    80.00 Ry     beta= 0.40
     Davidson diagonalization with overlap

---- Real-time Memory Report at c_bands before calling an iterative solver
           769 MiB given to the printing process from OS
             0 MiB allocation reported by mallinfo(arena+hblkhd)
        175871 MiB available memory on the node where the printing process lives
------------------
     ethr =  2.26E-04,  avg # of iterations =  7.5

     total cpu time spent up to now is      231.1 secs

     total energy              =  -41211.51953581 Ry
     estimated scf accuracy    <       3.93359571 Ry

     total magnetization       =     2.00 Bohr mag/cell
     absolute magnetization    =     4.99 Bohr mag/cell

     iteration #  8     ecut=    80.00 Ry     beta= 0.40
     Davidson diagonalization with overlap

---- Real-time Memory Report at c_bands before calling an iterative solver
           773 MiB given to the printing process from OS
             0 MiB allocation reported by mallinfo(arena+hblkhd)
        175849 MiB available memory on the node where the printing process lives
------------------
     ethr =  1.58E-04,  avg # of iterations =  2.5

     total cpu time spent up to now is      251.6 secs

     total energy              =  -41211.15129774 Ry
     estimated scf accuracy    <       2.81027361 Ry

     total magnetization       =    -0.00 Bohr mag/cell
     absolute magnetization    =     3.02 Bohr mag/cell

     iteration #  9     ecut=    80.00 Ry     beta= 0.40
     Davidson diagonalization with overlap

---- Real-time Memory Report at c_bands before calling an iterative solver
           775 MiB given to the printing process from OS
             0 MiB allocation reported by mallinfo(arena+hblkhd)
        175799 MiB available memory on the node where the printing process lives
------------------
     ethr =  1.13E-04,  avg # of iterations =  5.5

     total cpu time spent up to now is      278.3 secs

     total energy              =  -41211.36407925 Ry
     estimated scf accuracy    <       3.16299958 Ry

     total magnetization       =     2.00 Bohr mag/cell
     absolute magnetization    =     3.62 Bohr mag/cell

     iteration # 10     ecut=    80.00 Ry     beta= 0.40
     Davidson diagonalization with overlap

---- Real-time Memory Report at c_bands before calling an iterative solver
           778 MiB given to the printing process from OS
             0 MiB allocation reported by mallinfo(arena+hblkhd)
        175760 MiB available memory on the node where the printing process lives
------------------
     ethr =  1.13E-04,  avg # of iterations =  2.5

     total cpu time spent up to now is      298.9 secs

     total energy              =  -41211.20969140 Ry
     estimated scf accuracy    <       2.72948165 Ry

     total magnetization       =     2.00 Bohr mag/cell
     absolute magnetization    =     3.25 Bohr mag/cell

     iteration # 11     ecut=    80.00 Ry     beta= 0.40
     Davidson diagonalization with overlap

---- Real-time Memory Report at c_bands before calling an iterative solver
           780 MiB given to the printing process from OS
             0 MiB allocation reported by mallinfo(arena+hblkhd)
        175709 MiB available memory on the node where the printing process lives
------------------
     ethr =  1.10E-04,  avg # of iterations =  6.5

     total cpu time spent up to now is      327.8 secs

     total energy              =  -41211.29987644 Ry
     estimated scf accuracy    <       0.14032618 Ry

     total magnetization       =    -2.00 Bohr mag/cell
     absolute magnetization    =     2.90 Bohr mag/cell

     iteration # 12     ecut=    80.00 Ry     beta= 0.40
     Davidson diagonalization with overlap

---- Real-time Memory Report at c_bands before calling an iterative solver
           781 MiB given to the printing process from OS
             0 MiB allocation reported by mallinfo(arena+hblkhd)
        175689 MiB available memory on the node where the printing process lives
------------------
     ethr =  5.65E-06,  avg # of iterations = 13.0

     total cpu time spent up to now is      370.8 secs

     total energy              =  -41211.31445369 Ry
     estimated scf accuracy    <       0.08087831 Ry

     total magnetization       =    -2.00 Bohr mag/cell
     absolute magnetization    =     2.74 Bohr mag/cell

     iteration # 13     ecut=    80.00 Ry     beta= 0.40
     Davidson diagonalization with overlap

---- Real-time Memory Report at c_bands before calling an iterative solver
           783 MiB given to the printing process from OS
             0 MiB allocation reported by mallinfo(arena+hblkhd)
        175706 MiB available memory on the node where the printing process lives
------------------
     ethr =  3.26E-06,  avg # of iterations =  4.0

     total cpu time spent up to now is      396.0 secs

     total energy              =  -41211.32854494 Ry
     estimated scf accuracy    <       0.04347722 Ry

     total magnetization       =    -2.00 Bohr mag/cell
     absolute magnetization    =     2.61 Bohr mag/cell

     iteration # 14     ecut=    80.00 Ry     beta= 0.40
     Davidson diagonalization with overlap

---- Real-time Memory Report at c_bands before calling an iterative solver
           785 MiB given to the printing process from OS
             0 MiB allocation reported by mallinfo(arena+hblkhd)
        175698 MiB available memory on the node where the printing process lives
------------------
     ethr =  1.75E-06,  avg # of iterations = 10.0

     total cpu time spent up to now is      445.2 secs

     total energy              =  -41211.33561583 Ry
     estimated scf accuracy    <       0.00749030 Ry

     total magnetization       =    -2.00 Bohr mag/cell
     absolute magnetization    =     2.36 Bohr mag/cell

     iteration # 15     ecut=    80.00 Ry     beta= 0.40
     Davidson diagonalization with overlap

---- Real-time Memory Report at c_bands before calling an iterative solver
           786 MiB given to the printing process from OS
             0 MiB allocation reported by mallinfo(arena+hblkhd)
        175698 MiB available memory on the node where the printing process lives
------------------
     ethr =  3.02E-07,  avg # of iterations =  6.0

     total cpu time spent up to now is      475.0 secs

     total energy              =  -41211.33660514 Ry
     estimated scf accuracy    <       0.00173603 Ry

     total magnetization       =    -2.00 Bohr mag/cell
     absolute magnetization    =     2.31 Bohr mag/cell

     iteration # 16     ecut=    80.00 Ry     beta= 0.40
     Davidson diagonalization with overlap

---- Real-time Memory Report at c_bands before calling an iterative solver
           787 MiB given to the printing process from OS
             0 MiB allocation reported by mallinfo(arena+hblkhd)
        175688 MiB available memory on the node where the printing process lives
------------------
     ethr =  6.99E-08,  avg # of iterations =  3.5
 
     Magnetic moment per site  (integrated on atomic sphere of radius R)
     atom   1 (R=0.061)  charge= 17.3133  magn=  0.0000
     atom   2 (R=0.061)  charge= 17.3119  magn=  0.0001
     atom   3 (R=0.061)  charge= 17.3116  magn=  0.0001
     atom   4 (R=0.061)  charge= 17.3132  magn=  0.0000
     atom   5 (R=0.061)  charge= 17.3120  magn=  0.0000
     atom   6 (R=0.061)  charge= 17.3119  magn=  0.0001
     atom   7 (R=0.061)  charge= 17.3133  magn=  0.0000
     atom   8 (R=0.061)  charge= 17.3119  magn=  0.0001
     atom   9 (R=0.061)  charge= 17.3116  magn=  0.0001
     atom  10 (R=0.061)  charge= 17.3134  magn=  0.0000
     atom  11 (R=0.061)  charge= 17.3134  magn=  0.0001
     atom  12 (R=0.061)  charge= 17.3122  magn=  0.0000
     atom  13 (R=0.061)  charge= 17.3134  magn=  0.0000
     atom  14 (R=0.061)  charge= 17.3134  magn=  0.0001
     atom  15 (R=0.061)  charge= 17.3122  magn=  0.0000
     atom  16 (R=0.061)  charge= 17.3131  magn=  0.0000
     atom  17 (R=0.061)  charge= 17.3101  magn= -0.0017
     atom  18 (R=0.061)  charge= 17.3109  magn=  0.0002
     atom  19 (R=0.061)  charge= 17.3131  magn=  0.0000
     atom  20 (R=0.061)  charge= 17.3102  magn= -0.0017
     atom  21 (R=0.061)  charge= 17.3109  magn=  0.0002
     atom  22 (R=0.061)  charge= 17.3134  magn=  0.0000
     atom  23 (R=0.061)  charge= 17.3134  magn=  0.0001
     atom  24 (R=0.061)  charge= 17.3122  magn=  0.0000
     atom  25 (R=0.061)  charge= 17.3133  magn=  0.0000
     atom  26 (R=0.061)  charge= 17.3119  magn=  0.0001
     atom  27 (R=0.061)  charge= 17.3115  magn=  0.0001
     atom  28 (R=0.061)  charge= 17.3131  magn=  0.0000
     atom  29 (R=0.061)  charge= 17.3101  magn= -0.0017
     atom  30 (R=0.061)  charge= 17.3109  magn=  0.0002
     atom  31 (R=0.061)  charge= 17.3109  magn=  0.0000
     atom  32 (R=0.061)  charge= 17.3126  magn= -0.0001
     atom  33 (R=0.061)  charge= 17.3131  magn=  0.0000
     atom  34 (R=0.061)  charge= 17.3102  magn= -0.0017
     atom  35 (R=0.061)  charge= 17.3109  magn=  0.0002
     atom  36 (R=0.061)  charge= 17.3132  magn=  0.0000
     atom  37 (R=0.061)  charge= 17.3120  magn=  0.0000
     atom  38 (R=0.061)  charge= 17.3119  magn=  0.0001
     atom  39 (R=0.061)  charge= 17.3132  magn=  0.0000
     atom  40 (R=0.061)  charge= 17.3120  magn=  0.0000
     atom  41 (R=0.061)  charge= 17.3119  magn=  0.0001
     atom  42 (R=0.061)  charge= 17.3131  magn=  0.0000
     atom  43 (R=0.061)  charge= 17.3102  magn= -0.0017
     atom  44 (R=0.061)  charge= 17.3109  magn=  0.0002
     atom  45 (R=0.061)  charge= 17.3131  magn=  0.0000
     atom  46 (R=0.061)  charge= 17.3102  magn= -0.0017
     atom  47 (R=0.061)  charge= 17.3109  magn=  0.0002
     atom  48 (R=0.061)  charge= 17.3120  magn=  0.0000
     atom  49 (R=0.061)  charge= 17.3135  magn=  0.0001
     atom  50 (R=0.061)  charge= 17.3113  magn=  0.0001
     atom  51 (R=0.061)  charge= 17.3120  magn=  0.0000
     atom  52 (R=0.061)  charge= 17.3135  magn=  0.0001
     atom  53 (R=0.061)  charge= 17.3114  magn=  0.0001
     atom  54 (R=0.061)  charge= 17.3118  magn=  0.0000
     atom  55 (R=0.061)  charge= 17.3141  magn=  0.0001
     atom  56 (R=0.061)  charge= 17.3110  magn= -0.0002
     atom  57 (R=0.061)  charge= 17.3117  magn=  0.0000
     atom  58 (R=0.061)  charge= 17.3141  magn=  0.0001
     atom  59 (R=0.061)  charge= 17.3110  magn= -0.0002
     atom  60 (R=0.061)  charge= 17.3117  magn=  0.0000
     atom  61 (R=0.061)  charge= 17.3141  magn=  0.0001
     atom  62 (R=0.061)  charge= 17.3110  magn= -0.0002
     atom  63 (R=0.061)  charge= 17.3114  magn=  0.0001
     atom  64 (R=0.061)  charge= 17.3142  magn= -0.0000
     atom  65 (R=0.061)  charge= 17.3127  magn= -0.0001
     atom  66 (R=0.061)  charge= 17.3117  magn=  0.0000
     atom  67 (R=0.061)  charge= 17.3141  magn=  0.0001
     atom  68 (R=0.061)  charge= 17.3110  magn= -0.0002
     atom  69 (R=0.061)  charge= 17.3124  magn=  0.0000
     atom  70 (R=0.061)  charge= 17.3131  magn=  0.0001
     atom  71 (R=0.061)  charge= 17.3110  magn=  0.0001
     atom  72 (R=0.061)  charge= 17.3117  magn=  0.0000
     atom  73 (R=0.061)  charge= 17.3141  magn=  0.0001
     atom  74 (R=0.061)  charge= 17.3110  magn= -0.0002
     atom  75 (R=0.061)  charge= 17.3118  magn=  0.0000
     atom  76 (R=0.061)  charge= 17.3114  magn= -0.0030
     atom  77 (R=0.061)  charge= 17.2925  magn= -0.0020
     atom  78 (R=0.061)  charge= 17.3118  magn=  0.0000
     atom  79 (R=0.061)  charge= 17.3114  magn= -0.0030
     atom  80 (R=0.061)  charge= 17.2926  magn= -0.0020
     atom  81 (R=0.061)  charge= 17.3117  magn=  0.0000
     atom  82 (R=0.061)  charge= 17.3141  magn=  0.0001
     atom  83 (R=0.061)  charge= 17.3110  magn= -0.0002
     atom  84 (R=0.061)  charge= 17.3119  magn=  0.0000
     atom  85 (R=0.061)  charge= 17.3135  magn=  0.0001
     atom  86 (R=0.061)  charge= 17.3114  magn=  0.0001
     atom  87 (R=0.061)  charge= 17.3114  magn=  0.0001
     atom  88 (R=0.061)  charge= 17.3142  magn= -0.0000
     atom  89 (R=0.061)  charge= 17.3127  magn= -0.0001
     atom  90 (R=0.061)  charge= 17.3118  magn=  0.0000
     atom  91 (R=0.061)  charge= 17.3114  magn= -0.0030
     atom  92 (R=0.061)  charge= 17.2926  magn= -0.0020
     atom  93 (R=0.061)  charge= 17.3113  magn=  0.0000
     atom  94 (R=0.061)  charge= 17.3142  magn= -0.0000
     atom  95 (R=0.061)  charge= 17.3127  magn= -0.0001
     atom  96 (R=0.061)  charge=  5.2865  magn= -0.0001
     atom  97 (R=0.061)  charge=  5.2781  magn= -0.0012
     atom  98 (R=0.061)  charge=  5.2828  magn=  0.0008
     atom  99 (R=0.061)  charge=  5.2862  magn= -0.0002
     atom 100 (R=0.061)  charge=  5.2807  magn= -0.0002
     atom 101 (R=0.061)  charge=  5.2831  magn=  0.0007
     atom 102 (R=0.061)  charge=  5.2865  magn= -0.0001
     atom 103 (R=0.061)  charge=  5.2781  magn= -0.0012
     atom 104 (R=0.061)  charge=  5.2828  magn=  0.0008
     atom 105 (R=0.061)  charge=  5.2858  magn= -0.0001
     atom 106 (R=0.061)  charge=  5.2811  magn= -0.0000
     atom 107 (R=0.061)  charge=  5.2839  magn=  0.0006
     atom 108 (R=0.061)  charge=  5.2858  magn= -0.0001
     atom 109 (R=0.061)  charge=  5.2811  magn= -0.0000
     atom 110 (R=0.061)  charge=  5.2838  magn=  0.0007
     atom 111 (R=0.061)  charge=  5.2867  magn= -0.0011
     atom 112 (R=0.061)  charge=  5.2782  magn= -0.0056
     atom 113 (R=0.061)  charge=  5.2807  magn=  0.0007
     atom 114 (R=0.061)  charge=  5.2867  magn= -0.0011
     atom 115 (R=0.061)  charge=  5.2783  magn= -0.0056
     atom 116 (R=0.061)  charge=  5.2808  magn=  0.0007
     atom 117 (R=0.061)  charge=  5.2858  magn= -0.0001
     atom 118 (R=0.061)  charge=  5.2811  magn= -0.0000
     atom 119 (R=0.061)  charge=  5.2837  magn=  0.0008
     atom 120 (R=0.061)  charge=  5.2866  magn= -0.0001
     atom 121 (R=0.061)  charge=  5.2781  magn= -0.0012
     atom 122 (R=0.061)  charge=  5.2828  magn=  0.0008
     atom 123 (R=0.061)  charge=  5.2867  magn= -0.0011
     atom 124 (R=0.061)  charge=  5.2782  magn= -0.0056
     atom 125 (R=0.061)  charge=  5.2807  magn=  0.0007
     atom 126 (R=0.061)  charge=  5.2785  magn= -0.0006
     atom 127 (R=0.061)  charge=  5.2812  magn=  0.0004
     atom 128 (R=0.061)  charge=  5.2868  magn= -0.0011
     atom 129 (R=0.061)  charge=  5.2785  magn= -0.0056
     atom 130 (R=0.061)  charge=  5.2808  magn=  0.0007
     atom 131 (R=0.061)  charge=  5.2862  magn= -0.0002
     atom 132 (R=0.061)  charge=  5.2808  magn= -0.0002
     atom 133 (R=0.061)  charge=  5.2831  magn=  0.0007
     atom 134 (R=0.061)  charge=  5.2862  magn= -0.0002
     atom 135 (R=0.061)  charge=  5.2807  magn= -0.0002
     atom 136 (R=0.061)  charge=  5.2831  magn=  0.0007
     atom 137 (R=0.061)  charge=  5.2867  magn= -0.0011
     atom 138 (R=0.061)  charge=  5.2783  magn= -0.0056
     atom 139 (R=0.061)  charge=  5.2807  magn=  0.0007
     atom 140 (R=0.061)  charge=  5.2868  magn= -0.0011
     atom 141 (R=0.061)  charge=  5.2784  magn= -0.0055
     atom 142 (R=0.061)  charge=  5.2807  magn=  0.0007
     atom 143 (R=0.061)  charge=  5.2861  magn=  0.0005
     atom 144 (R=0.061)  charge=  5.2823  magn= -0.0002
     atom 145 (R=0.061)  charge=  5.2817  magn= -0.0000
     atom 146 (R=0.061)  charge=  5.2860  magn=  0.0005
     atom 147 (R=0.061)  charge=  5.2823  magn= -0.0002
     atom 148 (R=0.061)  charge=  5.2818  magn=  0.0000
     atom 149 (R=0.061)  charge=  5.2857  magn=  0.0003
     atom 150 (R=0.061)  charge=  5.2871  magn=  0.0004
     atom 151 (R=0.061)  charge=  5.2822  magn= -0.0001
     atom 152 (R=0.061)  charge=  5.2857  magn=  0.0003
     atom 153 (R=0.061)  charge=  5.2871  magn=  0.0004
     atom 154 (R=0.061)  charge=  5.2822  magn= -0.0001
     atom 155 (R=0.061)  charge=  5.2856  magn=  0.0003
     atom 156 (R=0.061)  charge=  5.2869  magn=  0.0005
     atom 157 (R=0.061)  charge=  5.2822  magn= -0.0001
     atom 158 (R=0.061)  charge=  5.2847  magn=  0.0002
     atom 159 (R=0.061)  charge=  5.2854  magn= -0.0004
     atom 160 (R=0.061)  charge=  5.2850  magn=  0.0001
     atom 161 (R=0.061)  charge=  5.2856  magn=  0.0003
     atom 162 (R=0.061)  charge=  5.2871  magn=  0.0005
     atom 163 (R=0.061)  charge=  5.2822  magn= -0.0001
     atom 164 (R=0.061)  charge=  5.2867  magn=  0.0005
     atom 165 (R=0.061)  charge=  5.2860  magn= -0.0001
     atom 166 (R=0.061)  charge=  5.2821  magn= -0.0000
     atom 167 (R=0.061)  charge=  5.2856  magn=  0.0003
     atom 168 (R=0.061)  charge=  5.2870  magn=  0.0005
     atom 169 (R=0.061)  charge=  5.2822  magn= -0.0001
     atom 170 (R=0.061)  charge=  5.2812  magn=  0.0001
     atom 171 (R=0.061)  charge=  5.2818  magn= -0.0599
     atom 172 (R=0.061)  charge=  5.2739  magn=  0.0033
     atom 173 (R=0.061)  charge=  5.2813  magn=  0.0001
     atom 174 (R=0.061)  charge=  5.2838  magn= -0.0599
     atom 175 (R=0.061)  charge=  5.2740  magn=  0.0033
     atom 176 (R=0.061)  charge=  5.2856  magn=  0.0003
     atom 177 (R=0.061)  charge=  5.2871  magn=  0.0005
     atom 178 (R=0.061)  charge=  5.2822  magn= -0.0001
     atom 179 (R=0.061)  charge=  5.2860  magn=  0.0005
     atom 180 (R=0.061)  charge=  5.2823  magn= -0.0002
     atom 181 (R=0.061)  charge=  5.2818  magn= -0.0000
     atom 182 (R=0.061)  charge=  5.2847  magn=  0.0002
     atom 183 (R=0.061)  charge=  5.2854  magn= -0.0004
     atom 184 (R=0.061)  charge=  5.2850  magn=  0.0001
     atom 185 (R=0.061)  charge=  5.2813  magn=  0.0002
     atom 186 (R=0.061)  charge=  5.2835  magn= -0.0599
     atom 187 (R=0.061)  charge=  5.2739  magn=  0.0033
     atom 188 (R=0.061)  charge=  5.2847  magn=  0.0002
     atom 189 (R=0.061)  charge=  5.2856  magn= -0.0004
     atom 190 (R=0.061)  charge=  5.2850  magn=  0.0001
     atom 191 (R=0.061)  charge=  8.7931  magn= -0.8929

     total cpu time spent up to now is      497.9 secs

     End of self-consistent calculation

 ------ SPIN UP ------------


          k = 0.0000 0.0000 0.0000 ( 93039 PWs)   bands (ev):

  -114.0394-114.0390-114.0365-113.8734-113.8730-113.8704-113.8650-113.8646
  -113.8633-113.8628-113.8600-113.8600-113.4818-113.4459-113.4457-113.4456
  -113.4373-113.4363-113.4362-113.4220-113.4204-113.4204-113.4148-113.4130
  -113.4129-113.4022-113.4019-113.4019-113.4016-113.4005-113.4003-113.3989
  -113.3987-113.3971-113.3703-113.3703-113.3703-113.3701-113.3687-113.3686
  -113.3684-113.3304-113.3302-113.3298-113.3297-113.3293-113.3292-113.3227
  -113.3117-113.3116-113.3115-113.3115-113.3109-113.3109-113.3078-113.3075
  -113.3074-113.3074-113.3008-113.3008-113.3008-113.2787-113.2781-113.2780
  -113.2359-113.2358-113.2357-113.2351-113.2351-113.2340-113.2338-113.2329
  -113.2329-113.2327-113.2327-113.2320-113.2285-113.2277-113.2276-113.2249
  -113.2243-113.2242-113.2242-113.2240-113.2240-113.2049-113.2047-113.2036
  -113.2031-113.2028-113.2022-113.1817-113.1768-113.1768-113.1755 -68.2865
   -68.2859 -68.2834 -68.1956 -68.1953 -68.1927 -68.1910 -68.1906 -68.1881
   -68.1217 -68.1213 -68.1186 -68.1112 -68.1108 -68.1095 -68.1091 -68.1063
   -68.1061 -68.0580 -68.0573 -68.0548 -68.0513 -68.0507 -68.0506 -68.0503
   -68.0494 -68.0489 -68.0477 -68.0462 -68.0461 -68.0399 -68.0394 -68.0381
   -68.0377 -68.0349 -68.0348 -67.7043 -67.6757 -67.6757 -67.6580 -67.6578
   -67.6576 -67.6500 -67.6499 -67.6497 -67.6486 -67.6476 -67.6472 -67.6457
   -67.6456 -67.6454 -67.6391 -67.6386 -67.6382 -67.6380 -67.6376 -67.6375
   -67.6349 -67.6332 -67.6332 -67.6273 -67.6258 -67.6257 -67.6257 -67.6240
   -67.6239 -67.6229 -67.6212 -67.6212 -67.6188 -67.6170 -67.6169 -67.6149
   -67.6143 -67.6141 -67.6140 -67.6136 -67.6131 -67.6130 -67.6126 -67.6124
   -67.6078 -67.6075 -67.6060 -67.6054 -67.6048 -67.6043 -67.6040 -67.6037
   -67.6034 -67.6033 -67.6025 -67.6024 -67.6021 -67.6020 -67.6006 -67.5999
   -67.5995 -67.5995 -67.5992 -67.5982 -67.5979 -67.5828 -67.5827 -67.5827
   -67.5825 -67.5811 -67.5811 -67.5760 -67.5759 -67.5758 -67.5754 -67.5745
   -67.5745 -67.5741 -67.5741 -67.5718 -67.5713 -67.5712 -67.5706 -67.5705
   -67.5697 -67.5690 -67.5453 -67.5451 -67.5447 -67.5446 -67.5443 -67.5441
   -67.5326 -67.5321 -67.5320 -67.5316 -67.5315 -67.5310 -67.5288 -67.5286
   -67.5282 -67.5279 -67.5275 -67.5275 -67.5275 -67.5273 -67.5269 -67.5202
   -67.5202 -67.5196 -67.5195 -67.5195 -67.5188 -67.5162 -67.5158 -67.5157
   -67.5155 -67.5155 -67.5150 -67.5149 -67.5135 -67.5130 -67.5130 -67.5125
   -67.5125 -67.5123 -67.5123 -67.5123 -67.5118 -67.5117 -67.5116 -67.5116
   -67.5115 -67.5115 -67.5112 -67.5106 -67.5105 -67.5105 -67.5104 -67.5104
   -67.5057 -67.5057 -67.5053 -67.5052 -67.5044 -67.5044 -67.4893 -67.4887
   -67.4886 -67.4810 -67.4802 -67.4799 -67.4789 -67.4784 -67.4783 -67.4466
   -67.4465 -67.4464 -67.4460 -67.4460 -67.4449 -67.4446 -67.4436 -67.4435
   -67.4402 -67.4396 -67.4395 -67.4395 -67.4394 -67.4387 -67.4385 -67.4384
   -67.4378 -67.4376 -67.4374 -67.4370 -67.4370 -67.4369 -67.4369 -67.4367
   -67.4362 -67.4361 -67.4361 -67.4359 -67.4358 -67.4357 -67.4354 -67.4352
   -67.4350 -67.4345 -67.4342 -67.4342 -67.4340 -67.4335 -67.4335 -67.4335
   -67.4334 -67.4334 -67.4328 -67.4326 -67.4322 -67.4318 -67.4315 -67.4314
   -67.4312 -67.4309 -67.4283 -67.4280 -67.4278 -67.4277 -67.4277 -67.4276
   -67.4273 -67.4273 -67.4272 -67.4252 -67.4246 -67.4245 -67.4135 -67.4133
   -67.4124 -67.4119 -67.4117 -67.4112 -67.4076 -67.4074 -67.4064 -67.4061
   -67.4058 -67.4057 -67.4053 -67.4050 -67.4047 -67.4042 -67.4038 -67.4031
   -67.3903 -67.3859 -67.3859 -67.3847 -67.3834 -67.3834 -67.3798 -67.3795
   -67.3794 -67.3791 -67.3782 -67.3781 -50.6606 -24.9930 -24.9927 -24.1757
    -8.5381  -8.2590  -8.2524  -7.8988  -7.7821  -7.7023  -7.6997  -7.6982
    -7.6406  -7.6393  -7.6198  -7.5996  -7.5545  -7.5542  -7.4973  -7.4760
    -7.4758  -7.4606  -7.4605  -7.4362  -7.4272  -7.4272  -7.4125  -7.4071
    -7.3958  -7.3845  -7.3666  -7.3544  -7.3520  -7.3509  -7.3192  -7.3180
    -7.2993  -7.2983  -7.2972  -7.2723  -7.2434  -7.2431  -7.2405  -7.2401
    -7.2233  -7.2229  -7.2175  -7.2034  -7.1815  -7.1788  -7.1784  -7.1556
    -7.1521  -7.1519  -7.1451  -7.1361  -7.1360  -7.1243  -7.1208  -7.1206
    -7.1159  -7.1158  -7.1124  -7.1040  -7.1017  -7.1014  -7.0922  -7.0861
    -7.0861  -7.0750  -7.0424  -7.0423  -7.0357  -7.0356  -7.0349  -7.0234
    -7.0232  -7.0213  -7.0130  -7.0087  -7.0084  -7.0024  -6.9852  -6.9851
    -6.9833  -6.9831  -6.9695  -6.9662  -6.9660  -6.9649  -6.9272  -6.9189
    -6.9186  -6.9092  -6.8886  -6.8885  -6.8840  -6.8839  -6.8815   3.6713
     3.6733   3.7800   3.8328   3.8344   3.8631   3.8755   3.8756   3.8770
     3.8970   3.8977   3.9148   3.9419   3.9421   3.9754   3.9755   3.9846
     3.9928   4.0215   4.0222   4.0383   4.0432   4.0433   4.0465   4.0543
     4.0599   4.0599   4.0832   4.0834   4.0927   4.1073   4.1073   4.1102
     4.1110   4.1269   4.1269   4.1294   4.1298   4.1408   4.1449   4.1476
     4.1481   4.1604   4.1673   4.1676   4.1725   4.1804   4.1805   4.1840
     4.1843   4.1861   4.2026   4.2083   4.2120   4.2121   4.2221   4.2248
     4.2249   4.2263   4.2311   4.2313   4.2340   4.2465   4.2466   4.2468
     4.2530   4.2540   4.2542   4.2674   4.2675   4.2696   4.2741   4.2741
     4.2866   4.2867   4.2986   4.2986   4.3072   4.3192   4.3239   4.3373
     4.3425   4.3428   4.3564   4.3633   4.3637   4.3840   4.3845   4.3845
     4.3910   4.3912   4.3969   4.3997   4.4090   4.4091   4.4128   4.4213
     4.4213   4.4260   4.4286   4.4286   4.4371   4.4374   4.4494   4.4498
     4.4578   4.4640   4.4642   4.4650   4.4668   4.4860   4.4864   4.4919
     4.5017   4.5019   4.5074   4.5088   4.5091   4.5126   4.5130   4.5286
     4.5341   4.5341   4.5414   4.5416   4.5468   4.5545   4.5549   4.5614
     4.5617   4.5650   4.5753   4.5795   4.5933   4.5982   4.5982   4.6025
     4.6025   4.6053   4.6132   4.6133   4.6236   4.6236   4.6238   4.6259
     4.6278   4.6278   4.6336   4.6373   4.6432   4.6433   4.6484   4.6509
     4.6509   4.6536   4.6538   4.6586   4.6622   4.6764   4.6765   4.6916
     4.6916   4.6949   4.6958   4.6958   4.6968   4.7092   4.7093   4.7159
     4.7161   4.7180   4.7221   4.7222   4.7222   4.7271   4.7289   4.7289
     4.7383   4.7409   4.7409   4.7511   4.7513   4.7514   4.7516   4.7517
     4.7601   4.7615   4.7615   4.7657   4.7658   4.7699   4.7700   4.7708
     4.7771   4.7827   4.7828   4.7837   4.7849   4.7851   4.7851   4.7901
     4.7902   4.7907   4.7962   4.7963   4.7992   4.7996   4.8065   4.8065
     4.8145   4.8205   4.8205   4.8226   4.8496   4.8498   4.8551   4.8568
     4.8570   4.8571   4.8649   4.8751   4.8811   4.8813   4.8920   4.8920
     4.9020   4.9021   4.9107   4.9253   4.9256   4.9376   4.9401   4.9401
     4.9427   4.9428   4.9454   4.9510   4.9561   4.9563   4.9710   4.9790
     4.9791   4.9836   4.9837   4.9848   4.9955   4.9966   4.9967   5.0044
     5.0152   5.0199   5.0200   5.0334   5.0335   5.0459   5.0459   5.0520
     5.0520   5.0540   5.0556   5.0587   5.0677   5.0680   5.0714   5.0715
     5.0757   5.0757   5.0947   5.0948   5.1044   5.1359   5.1383   5.1391
     5.1408   5.1430   5.1430   5.1522   5.1578   5.1582   5.1709   5.1863
     5.1868   5.1925   5.1927   5.2047   5.2166   5.2257   5.2262   5.2371
     5.2372   5.2602   5.2608   5.2710   5.2744   5.2750   5.2789   5.2897
     5.2994   5.3040   5.3040   5.3248   5.3404   5.3408   5.3420   5.3675
     5.3678   5.4001   5.4003   5.4134   5.4307   5.4309   5.4343   5.4526
     5.4579   5.4594   5.4595   5.4697   5.4769   5.4771   5.5033   5.5033
     5.5043   5.5045   5.5093   5.5161   5.5163   5.5311   5.5331   5.5335
     5.5462   5.5592   5.5598   5.5600   5.5680   5.5683   5.5686   5.5728
     5.5728   5.5885   5.5886   5.5922   5.6010   5.6011   5.6028   5.6054
     5.6093   5.6093   5.6152   5.6163   5.6164   5.6183   5.6218   5.6220
     5.6233   5.6287   5.6295   5.6296   5.6324   5.6324   5.6326   5.6417
     5.6459   5.6460   5.6631   5.6666   5.6666   5.6742   5.6742   5.6768
     5.6769   5.6804   5.6805   5.6816   5.6893   5.6895   5.6948   5.7010
     5.7010   5.7034   5.7074   5.7074   5.7137   5.7138   5.7157   5.7212
     5.7217   5.7220   5.7257   5.7258   5.7292   5.7325   5.7356   5.7357
     5.7389   5.7439   5.7440   5.7477   5.7526   5.7527   5.7557   5.7557
     5.7563   5.7641   5.7642   5.7786   5.7786   5.7799   5.7809   5.7811
     5.7882   5.7911   5.7944   5.7945   5.8003   5.8004   5.8011   5.8045
     5.8061   5.8076   5.8076   5.8087   5.8091   5.8092   5.8156   5.8156
     5.8214   5.8214   5.8237   5.8245   5.8293   5.8298   5.8298   5.8391
     5.8391   5.8421   5.8422   5.8528   5.8559   5.8560   5.8712   5.8808
     5.8809   5.8824   5.8861   5.8862   5.8900   5.8944   5.8946   5.8991
     5.9017   5.9020   5.9060   5.9062   5.9142   5.9143   5.9179   5.9316
     5.9433   5.9534   5.9535   5.9592   5.9677   5.9677   5.9721   5.9852
     5.9852   6.0006   6.0006   6.0064   6.0065   6.0069   6.0195   6.0217
     6.0239   6.0241   6.0317   6.0674   6.0751   6.0753   6.1029   6.1030
     6.1104   6.1105   6.1143   6.1235   6.1336   6.1340   6.1435   6.1496
     6.1497   6.2082   6.2150   6.2150   6.2360   6.2622   6.2622   6.2932
     6.3562   6.3563   6.3580   6.3881   6.4042   6.4042   6.4174   6.4344
     6.4393   6.4394   6.4423   6.4425   6.4533   6.4736   6.4874   6.4874
     6.5098   6.5100   6.5546   6.5549   6.5715   6.5996   6.5997   6.6439
     6.7324   6.7325   6.7578   6.7692   6.8068   6.8259   6.8326   6.8326
     6.8680   6.8680   6.8851   6.8852   6.9053   6.9189   6.9191   6.9296
     6.9670   6.9674   6.9760   6.9781   6.9785   7.0691   7.0691   7.0958
     7.0959   7.0999   7.1105   7.1107   7.1111   7.1281   7.1387   7.1417
     7.1780   7.1786   7.1853   7.2396   7.2397   7.2713   7.2826   7.2828
     7.3719   7.3720   7.3813   7.4142   7.4146   7.4378   7.4459   7.4460
     7.4526   7.4678   7.4858   7.4862   7.5171   7.5198   7.5201   7.5234
     7.5283   7.5362   7.5363   7.5824   7.6149   7.6150   7.6850   7.6850
     7.6951   7.7276   7.7278   7.7454   7.7466   7.7807   7.7808   7.7947
     7.7986   7.7988   7.8272   7.8274   7.8335   7.8848   7.8852   7.9742
     7.9743   8.0080   8.0651   8.0715   8.0716   8.1276   8.1280   8.1443
     8.1446   8.1448   8.1466   8.1770   8.1772   8.1939   8.2038   8.2126
     8.2129   8.2204   8.2231   8.2255   8.2271   8.2272   8.2447   8.2448
     8.2488   8.2605   8.2607   8.2944   8.3051   8.3052   8.3502   8.3524
     8.3525   8.3789   8.3789   8.3864   8.3913   8.4046   8.4047   8.4128
     8.4128   8.4322   8.4323   8.4379   8.4519   8.4732   8.4732   8.4832
     8.5065   8.5092   8.5092   8.5094   8.5459   8.5461   8.5775   8.5927
     8.5934   8.6076   8.6408   8.6410   8.6763   8.7469   8.7742   8.7744
     8.7942   8.7942   8.8122   8.8312   8.8317   8.8318   8.8531   8.8586
     8.8591   8.8652   8.8693   8.8765   8.8769   8.8861   8.8865   8.8903
     8.8942   8.9093   8.9094   8.9103   8.9195   8.9199   8.9330   8.9334
     8.9337   8.9367   8.9491   8.9502   8.9504   9.0070   9.0073   9.0461
     9.0646   9.0650   9.0826   9.0884   9.0911   9.0914   9.0954   9.1044
     9.1046   9.1150   9.1152   9.1357   9.1358   9.1671   9.1852   9.1852
     9.2508   9.2576   9.2701   9.2703   9.2890   9.2891   9.3342   9.3343
     9.3419   9.3419   9.3461   9.3462   9.3618   9.3766   9.3811   9.4031
     9.4032   9.4181   9.4182   9.4211   9.4432   9.4699   9.4699   9.4765
     9.4819   9.5194   9.5194   9.5449   9.5450   9.5781   9.5783   9.6454
     9.6456   9.6740   9.6927   9.6928   9.7285   9.7455   9.7456   9.7533
     9.8496   9.8497   9.9303   9.9303   9.9719  10.0746  10.1501  10.1501
    11.1341  12.0502  12.0510  12.4099  12.5788  12.8479  13.0886  13.0894
    13.2828  13.2835  13.4238  13.4247  13.4583  13.5689  13.9821  14.0065
    14.0066  14.0809  14.0815  14.1462

     occupation numbers 
     1.0000   1.0000   1.0000   1.0000   1.0000   1.0000   1.0000   1.0000
     1.0000   1.0000   1.0000   1.0000   1.0000   1.0000   1.0000   1.0000
     1.0000   1.0000   1.0000   1.0000   1.0000   1.0000   1.0000   1.0000
     1.0000   1.0000   1.0000   1.0000   1.0000   1.0000   1.0000   1.0000
     1.0000   1.0000   1.0000   1.0000   1.0000   1.0000   1.0000   1.0000
     1.0000   1.0000   1.0000   1.0000   1.0000   1.0000   1.0000   1.0000
     1.0000   1.0000   1.0000   1.0000   1.0000   1.0000   1.0000   1.0000
     1.0000   1.0000   1.0000   1.0000   1.0000   1.0000   1.0000   1.0000
     1.0000   1.0000   1.0000   1.0000   1.0000   1.0000   1.0000   1.0000
     1.0000   1.0000   1.0000   1.0000   1.0000   1.0000   1.0000   1.0000
     1.0000   1.0000   1.0000   1.0000   1.0000   1.0000   1.0000   1.0000
     1.0000   1.0000   1.0000   1.0000   1.0000   1.0000   1.0000   1.0000
     1.0000   1.0000   1.0000   1.0000   1.0000   1.0000   1.0000   1.0000
     1.0000   1.0000   1.0000   1.0000   1.0000   1.0000   1.0000   1.0000
     1.0000   1.0000   1.0000   1.0000   1.0000   1.0000   1.0000   1.0000
     1.0000   1.0000   1.0000   1.0000   1.0000   1.0000   1.0000   1.0000
     1.0000   1.0000   1.0000   1.0000   1.0000   1.0000   1.0000   1.0000
     1.0000   1.0000   1.0000   1.0000   1.0000   1.0000   1.0000   1.0000
     1.0000   1.0000   1.0000   1.0000   1.0000   1.0000   1.0000   1.0000
     1.0000   1.0000   1.0000   1.0000   1.0000   1.0000   1.0000   1.0000
     1.0000   1.0000   1.0000   1.0000   1.0000   1.0000   1.0000   1.0000
     1.0000   1.0000   1.0000   1.0000   1.0000   1.0000   1.0000   1.0000
     1.0000   1.0000   1.0000   1.0000   1.0000   1.0000   1.0000   1.0000
     1.0000   1.0000   1.0000   1.0000   1.0000   1.0000   1.0000   1.0000
     1.0000   1.0000   1.0000   1.0000   1.0000   1.0000   1.0000   1.0000
     1.0000   1.0000   1.0000   1.0000   1.0000   1.0000   1.0000   1.0000
     1.0000   1.0000   1.0000   1.0000   1.0000   1.0000   1.0000   1.0000
     1.0000   1.0000   1.0000   1.0000   1.0000   1.0000   1.0000   1.0000
     1.0000   1.0000   1.0000   1.0000   1.0000   1.0000   1.0000   1.0000
     1.0000   1.0000   1.0000   1.0000   1.0000   1.0000   1.0000   1.0000
     1.0000   1.0000   1.0000   1.0000   1.0000   1.0000   1.0000   1.0000
     1.0000   1.0000   1.0000   1.0000   1.0000   1.0000   1.0000   1.0000
     1.0000   1.0000   1.0000   1.0000   1.0000   1.0000   1.0000   1.0000
     1.0000   1.0000   1.0000   1.0000   1.0000   1.0000   1.0000   1.0000
     1.0000   1.0000   1.0000   1.0000   1.0000   1.0000   1.0000   1.0000
     1.0000   1.0000   1.0000   1.0000   1.0000   1.0000   1.0000   1.0000
     1.0000   1.0000   1.0000   1.0000   1.0000   1.0000   1.0000   1.0000
     1.0000   1.0000   1.0000   1.0000   1.0000   1.0000   1.0000   1.0000
     1.0000   1.0000   1.0000   1.0000   1.0000   1.0000   1.0000   1.0000
     1.0000   1.0000   1.0000   1.0000   1.0000   1.0000   1.0000   1.0000
     1.0000   1.0000   1.0000   1.0000   1.0000   1.0000   1.0000   1.0000
     1.0000   1.0000   1.0000   1.0000   1.0000   1.0000   1.0000   1.0000
     1.0000   1.0000   1.0000   1.0000   1.0000   1.0000   1.0000   1.0000
     1.0000   1.0000   1.0000   1.0000   1.0000   1.0000   1.0000   1.0000
     1.0000   1.0000   1.0000   1.0000   1.0000   1.0000   1.0000   1.0000
     1.0000   1.0000   1.0000   1.0000   1.0000   1.0000   1.0000   1.0000
     1.0000   1.0000   1.0000   1.0000   1.0000   1.0000   1.0000   1.0000
     1.0000   1.0000   1.0000   1.0000   1.0000   1.0000   1.0000   1.0000
     1.0000   1.0000   1.0000   1.0000   1.0000   1.0000   1.0000   1.0000
     1.0000   1.0000   1.0000   1.0000   1.0000   1.0000   1.0000   1.0000
     1.0000   1.0000   1.0000   1.0000   1.0000   1.0000   1.0000   1.0000
     1.0000   1.0000   1.0000   1.0000   1.0000   1.0000   1.0000   1.0000
     1.0000   1.0000   1.0000   1.0000   1.0000   1.0000   1.0000   1.0000
     1.0000   1.0000   1.0000   1.0000   1.0000   1.0000   1.0000   1.0000
     1.0000   1.0000   1.0000   1.0000   1.0000   1.0000   1.0000   1.0000
     1.0000   1.0000   1.0000   1.0000   1.0000   1.0000   1.0000   1.0000
     1.0000   1.0000   1.0000   1.0000   1.0000   1.0000   1.0000   1.0000
     1.0000   1.0000   1.0000   1.0000   1.0000   1.0000   1.0000   1.0000
     1.0000   1.0000   1.0000   1.0000   1.0000   1.0000   1.0000   1.0000
     1.0000   1.0000   1.0000   1.0000   1.0000   1.0000   1.0000   1.0000
     1.0000   1.0000   1.0000   1.0000   1.0000   1.0000   1.0000   1.0000
     1.0000   1.0000   1.0000   1.0000   1.0000   1.0000   1.0000   1.0000
     1.0000   1.0000   1.0000   1.0000   1.0000   1.0000   1.0000   1.0000
     1.0000   1.0000   1.0000   1.0000   1.0000   1.0000   1.0000   1.0000
     1.0000   1.0000   1.0000   1.0000   1.0000   1.0000   1.0000   1.0000
     1.0000   1.0000   1.0000   1.0000   1.0000   1.0000   1.0000   1.0000
     1.0000   1.0000   1.0000   1.0000   1.0000   1.0000   1.0000   1.0000
     1.0000   1.0000   1.0000   1.0000   1.0000   1.0000   1.0000   1.0000
     1.0000   1.0000   1.0000   1.0000   1.0000   1.0000   1.0000   1.0000
     1.0000   1.0000   1.0000   1.0000   1.0000   1.0000   1.0000   1.0000
     1.0000   1.0000   1.0000   1.0000   1.0000   1.0000   1.0000   1.0000
     1.0000   1.0000   1.0000   1.0000   1.0000   1.0000   1.0000   1.0000
     1.0000   1.0000   1.0000   1.0000   1.0000   1.0000   1.0000   1.0000
     1.0000   1.0000   1.0000   1.0000   1.0000   1.0000   1.0000   1.0000
     1.0000   1.0000   1.0000   1.0000   1.0000   1.0000   1.0000   1.0000
     1.0000   1.0000   1.0000   1.0000   1.0000   1.0000   1.0000   1.0000
     1.0000   1.0000   1.0000   1.0000   1.0000   1.0000   1.0000   1.0000
     1.0000   1.0000   1.0000   1.0000   1.0000   1.0000   1.0000   1.0000
     1.0000   1.0000   1.0000   1.0000   1.0000   1.0000   1.0000   1.0000
     1.0000   1.0000   1.0000   1.0000   1.0000   1.0000   1.0000   1.0000
     1.0000   1.0000   1.0000   1.0000   1.0000   1.0000   1.0000   1.0000
     1.0000   1.0000   1.0000   1.0000   1.0000   1.0000   1.0000   1.0000
     1.0000   1.0000   1.0000   1.0000   1.0000   1.0000   1.0000   1.0000
     1.0000   1.0000   1.0000   1.0000   1.0000   1.0000   1.0000   1.0000
     1.0000   1.0000   1.0000   1.0000   1.0000   1.0000   1.0000   1.0000
     1.0000   1.0000   1.0000   1.0000   1.0000   1.0000   1.0000   1.0000
     1.0000   1.0000   1.0000   1.0000   1.0000   1.0000   1.0000   1.0000
     1.0000   1.0000   1.0000   1.0000   1.0000   1.0000   1.0000   1.0000
     1.0000   1.0000   1.0000   1.0000   1.0000   1.0000   1.0000   1.0000
     1.0000   1.0000   1.0000   1.0000   1.0000   1.0000   1.0000   1.0000
     1.0000   1.0000   1.0000   1.0000   1.0000   1.0000   1.0000   1.0000
     1.0000   1.0000   1.0000   1.0000   1.0000   1.0000   1.0000   1.0000
     1.0000   1.0000   1.0000   1.0000   1.0000   1.0000   1.0000   1.0000
     1.0000   1.0000   1.0000   1.0000   1.0000   1.0000   1.0000   1.0000
     1.0000   1.0000   1.0000   1.0000   1.0000   1.0000   1.0000   1.0000
     1.0000   1.0000   1.0000   1.0000   1.0000   1.0000   1.0000   1.0000
     1.0000   1.0000   1.0000   1.0000   1.0000   1.0000   1.0000   1.0000
     1.0000   1.0000   1.0000   1.0000   1.0000   1.0000   1.0000   1.0000
     1.0000   1.0000   1.0000   1.0000   1.0000   1.0000   1.0000   1.0000
     1.0000   1.0000   1.0000   1.0000   1.0000   1.0000   1.0000   1.0000
     1.0000   1.0000   1.0000   1.0000   1.0000   1.0000   1.0000   1.0000
     1.0000   1.0000   1.0000   1.0000   1.0000   1.0000   1.0000   1.0000
     1.0000   1.0000   1.0000   1.0000   1.0000   1.0000   1.0000   1.0000
     1.0000   1.0000   1.0000   1.0000   1.0000   1.0000   1.0000   1.0000
     1.0000   1.0000   1.0000   1.0000   1.0000   1.0000   1.0000   1.0000
     1.0000   1.0000   1.0000   1.0000   1.0000   1.0000   1.0000   1.0000
     1.0000   1.0000   1.0000   1.0000   1.0000   1.0000   1.0000   1.0000
     1.0000   1.0000   1.0000   1.0000   1.0000   1.0000   1.0000   1.0000
     1.0000   1.0000   1.0000   1.0000   1.0000   1.0000   1.0000   1.0000
     1.0000   1.0000   1.0000   1.0000   1.0000   1.0000   1.0000   1.0000
     1.0000   1.0000   1.0000   1.0000   1.0000   1.0000   1.0000   1.0000
     1.0000   1.0000   1.0000   1.0000   1.0000   1.0000   1.0000   1.0000
     1.0000   1.0000   1.0000   1.0000   1.0000   1.0000   1.0000   1.0000
     1.0000   1.0000   1.0000   1.0000   1.0000   1.0000   1.0000   1.0000
     1.0000   1.0000   1.0000   1.0000   1.0000   1.0000   1.0000   1.0000
[...]
     3.0527   3.0527   3.0638   3.0638   3.0710   3.0710   3.0735   3.0741
     3.0741   3.0745   3.0794   3.0794   3.0863   3.0863   3.0869   3.0880
     3.0976   3.0976   3.1022   3.1038   3.1053   3.1053   3.1104   3.1104
     3.1130   3.1138   3.1138   3.1238   3.1326   3.1326   3.1415   3.1446
     3.1446   3.1492   3.1492   3.1503   3.1576   3.1598   3.1598   3.1620
     3.1620   3.1643   3.1654   3.1654   3.1678   3.1711   3.1756   3.1766
     3.1766   3.1836   3.1836   3.1846   3.1911   3.1911   3.1928   3.1928
     3.1930   3.1980   3.1980   3.2036   3.2172   3.2172   3.2266   3.2266
     3.2280   3.2436   3.2436   3.2442   3.2490   3.2526   3.2526   3.2630
     3.2704   3.2704   3.2889   3.3067   3.3195   3.3195   3.3248   3.3248
     3.3279   3.3371   3.3371   3.3421   3.3474   3.3663   3.3663   3.3815
     3.3815   3.4161   3.4161   3.4492   3.4568   3.4568   3.4740   3.4798
     3.4884   3.4884   3.5160   3.5289   3.5289   3.5443   3.5443   3.6935
     3.8069   3.8745   3.8745   3.9278   3.9333   3.9333   3.9545   3.9545
     3.9640   3.9651   4.0406   4.0962   4.0962   4.1202   4.1202   4.1414
     4.1774   4.1774   4.1776   4.2840   4.3154   4.3154   4.3310   4.3363
     4.3363   4.3464   4.3464   4.3594   4.4028   4.4028   4.4034   4.4037
     4.4429   4.4429   4.4742   4.4742   4.5126   4.6070   4.6070   4.6305
     4.6654   4.6861   4.6861   4.6998   4.7345   4.7384   4.7527   4.7527
     4.7867   4.7867   4.8409   4.8409   4.8521   4.8521   4.8644   4.8707
     4.8865   4.8865   4.9188   4.9188   4.9364   5.0109   5.0109   5.0236
     5.0369   5.0369   5.0393   5.0641   5.0712   5.0763   5.0763   5.1728
     5.1728   5.2424   5.3383   5.3777   5.3777   5.3822   5.4439   5.4439
     5.5170   5.5170   5.5170   5.5385   5.5584   5.5584   5.5665   5.5793
     5.5793   5.6314   5.6314   5.6391   5.6625   5.6625   5.6755   5.6779
     5.6872   5.6999   5.6999   5.7060   5.7608   5.7608   5.8084   5.8154
     5.8154   5.8512   5.8512   5.8629   5.8902   5.8902   5.9091   5.9283
     5.9283   5.9427   5.9779   5.9890   5.9890   6.0277   6.0277   6.1762
     6.1762   6.1960   6.3025   6.3025   6.3172   6.3729   6.3750   6.3750
     6.3915   6.3915   6.4030   6.4260   6.4260   6.4264   6.4496   6.4513
     6.4513   6.4602   6.4628   6.4722   6.4722   6.4815   6.4895   6.4913
     6.4913   6.5005   6.5005   6.5165   6.5274   6.5274   6.5753   6.5793
     6.5793   6.5981   6.6047   6.6047   6.6284   6.6284   6.6424   6.6522
     6.6525   6.6525   6.6662   6.6662   6.6861   6.7172   6.7200   6.7200
     6.7401   6.7444   6.7444   6.7730   6.8075   6.8075   6.8438   6.8438
     6.8531   6.8998   6.8998   6.9254   6.9887   7.0247   7.0373   7.0373
     7.0715   7.0715   7.0875   7.0943   7.1003   7.1003   7.1286   7.1319
     7.1319   7.1429   7.1583   7.1583   7.1618   7.1756   7.1756   7.1869
     7.1885   7.1985   7.1985   7.2055   7.2178   7.2178   7.2275   7.2349
     7.2411   7.2411   7.2532   7.2579   7.2579   7.3010   7.3010   7.3645
     7.3754   7.3754   7.3873   7.4014   7.4014   7.4035   7.4062   7.4196
     7.4196   7.4304   7.4304   7.4542   7.4542   7.4915   7.5081   7.5081
     7.5793   7.5925   7.5949   7.5949   7.6205   7.6205   7.6617   7.6617
     7.6749   7.6749   7.6759   7.6759   7.6972   7.7053   7.7101   7.7368
     7.7368   7.7525   7.7525   7.7597   7.7777   7.8055   7.8055   7.8135
     7.8332   7.8641   7.8641   7.8857   7.8857   7.9344   7.9344   8.0063
     8.0063   8.0359   8.0447   8.0447   8.0850   8.1025   8.1025   8.1118
     8.2195   8.2195   8.3057   8.3057   8.4028   8.5387   8.5387   8.6368
     8.8988   8.8988  11.6784  12.6888  13.2456  13.3018  13.3018  13.4848
    13.9699  13.9699  14.2032  14.2032  14.2443  14.3537  14.7458  14.8088
    14.8088  14.9314  14.9320  14.9914

     occupation numbers 
     1.0000   1.0000   1.0000   1.0000   1.0000   1.0000   1.0000   1.0000
     1.0000   1.0000   1.0000   1.0000   1.0000   1.0000   1.0000   1.0000
     1.0000   1.0000   1.0000   1.0000   1.0000   1.0000   1.0000   1.0000
     1.0000   1.0000   1.0000   1.0000   1.0000   1.0000   1.0000   1.0000
     1.0000   1.0000   1.0000   1.0000   1.0000   1.0000   1.0000   1.0000
     1.0000   1.0000   1.0000   1.0000   1.0000   1.0000   1.0000   1.0000
     1.0000   1.0000   1.0000   1.0000   1.0000   1.0000   1.0000   1.0000
     1.0000   1.0000   1.0000   1.0000   1.0000   1.0000   1.0000   1.0000
     1.0000   1.0000   1.0000   1.0000   1.0000   1.0000   1.0000   1.0000
     1.0000   1.0000   1.0000   1.0000   1.0000   1.0000   1.0000   1.0000
     1.0000   1.0000   1.0000   1.0000   1.0000   1.0000   1.0000   1.0000
     1.0000   1.0000   1.0000   1.0000   1.0000   1.0000   1.0000   1.0000
     1.0000   1.0000   1.0000   1.0000   1.0000   1.0000   1.0000   1.0000
     1.0000   1.0000   1.0000   1.0000   1.0000   1.0000   1.0000   1.0000
     1.0000   1.0000   1.0000   1.0000   1.0000   1.0000   1.0000   1.0000
     1.0000   1.0000   1.0000   1.0000   1.0000   1.0000   1.0000   1.0000
     1.0000   1.0000   1.0000   1.0000   1.0000   1.0000   1.0000   1.0000
     1.0000   1.0000   1.0000   1.0000   1.0000   1.0000   1.0000   1.0000
     1.0000   1.0000   1.0000   1.0000   1.0000   1.0000   1.0000   1.0000
     1.0000   1.0000   1.0000   1.0000   1.0000   1.0000   1.0000   1.0000
     1.0000   1.0000   1.0000   1.0000   1.0000   1.0000   1.0000   1.0000
     1.0000   1.0000   1.0000   1.0000   1.0000   1.0000   1.0000   1.0000
     1.0000   1.0000   1.0000   1.0000   1.0000   1.0000   1.0000   1.0000
     1.0000   1.0000   1.0000   1.0000   1.0000   1.0000   1.0000   1.0000
     1.0000   1.0000   1.0000   1.0000   1.0000   1.0000   1.0000   1.0000
     1.0000   1.0000   1.0000   1.0000   1.0000   1.0000   1.0000   1.0000
     1.0000   1.0000   1.0000   1.0000   1.0000   1.0000   1.0000   1.0000
     1.0000   1.0000   1.0000   1.0000   1.0000   1.0000   1.0000   1.0000
     1.0000   1.0000   1.0000   1.0000   1.0000   1.0000   1.0000   1.0000
     1.0000   1.0000   1.0000   1.0000   1.0000   1.0000   1.0000   1.0000
     1.0000   1.0000   1.0000   1.0000   1.0000   1.0000   1.0000   1.0000
     1.0000   1.0000   1.0000   1.0000   1.0000   1.0000   1.0000   1.0000
     1.0000   1.0000   1.0000   1.0000   1.0000   1.0000   1.0000   1.0000
     1.0000   1.0000   1.0000   1.0000   1.0000   1.0000   1.0000   1.0000
     1.0000   1.0000   1.0000   1.0000   1.0000   1.0000   1.0000   1.0000
     1.0000   1.0000   1.0000   1.0000   1.0000   1.0000   1.0000   1.0000
     1.0000   1.0000   1.0000   1.0000   1.0000   1.0000   1.0000   1.0000
     1.0000   1.0000   1.0000   1.0000   1.0000   1.0000   1.0000   1.0000
     1.0000   1.0000   1.0000   1.0000   1.0000   1.0000   1.0000   1.0000
     1.0000   1.0000   1.0000   1.0000   1.0000   1.0000   1.0000   1.0000
     1.0000   1.0000   1.0000   1.0000   1.0000   1.0000   1.0000   1.0000
     1.0000   1.0000   1.0000   1.0000   1.0000   1.0000   1.0000   1.0000
     1.0000   1.0000   1.0000   1.0000   1.0000   1.0000   1.0000   1.0000
     1.0000   1.0000   1.0000   1.0000   1.0000   1.0000   1.0000   1.0000
     1.0000   1.0000   1.0000   1.0000   1.0000   1.0000   1.0000   1.0000
     1.0000   1.0000   1.0000   1.0000   1.0000   1.0000   1.0000   1.0000
     1.0000   1.0000   1.0000   1.0000   1.0000   1.0000   1.0000   1.0000
     1.0000   1.0000   1.0000   1.0000   1.0000   1.0000   1.0000   1.0000
     1.0000   1.0000   1.0000   1.0000   1.0000   1.0000   1.0000   1.0000
     1.0000   1.0000   1.0000   1.0000   1.0000   1.0000   1.0000   1.0000
     1.0000   1.0000   1.0000   1.0000   1.0000   1.0000   1.0000   1.0000
     1.0000   1.0000   1.0000   1.0000   1.0000   1.0000   1.0000   1.0000
     1.0000   1.0000   1.0000   1.0000   1.0000   1.0000   1.0000   1.0000
     1.0000   1.0000   1.0000   1.0000   1.0000   1.0000   1.0000   1.0000
     1.0000   1.0000   1.0000   1.0000   1.0000   1.0000   1.0000   1.0000
     1.0000   1.0000   1.0000   1.0000   1.0000   1.0000   1.0000   1.0000
     1.0000   1.0000   1.0000   1.0000   1.0000   1.0000   1.0000   1.0000
     1.0000   1.0000   1.0000   1.0000   1.0000   1.0000   1.0000   1.0000
     1.0000   1.0000   1.0000   1.0000   1.0000   1.0000   1.0000   1.0000
     1.0000   1.0000   1.0000   1.0000   1.0000   1.0000   1.0000   1.0000
     1.0000   1.0000   1.0000   1.0000   1.0000   1.0000   1.0000   1.0000
     1.0000   1.0000   1.0000   1.0000   1.0000   1.0000   1.0000   1.0000
     1.0000   1.0000   1.0000   1.0000   1.0000   1.0000   1.0000   1.0000
     1.0000   1.0000   1.0000   1.0000   1.0000   1.0000   1.0000   1.0000
     1.0000   1.0000   1.0000   1.0000   1.0000   1.0000   1.0000   1.0000
     1.0000   1.0000   1.0000   1.0000   1.0000   1.0000   1.0000   1.0000
     1.0000   1.0000   1.0000   1.0000   1.0000   1.0000   1.0000   1.0000
     1.0000   1.0000   1.0000   1.0000   1.0000   1.0000   1.0000   1.0000
     1.0000   1.0000   1.0000   1.0000   1.0000   1.0000   1.0000   1.0000
     1.0000   1.0000   1.0000   1.0000   1.0000   1.0000   1.0000   1.0000
     1.0000   1.0000   1.0000   1.0000   1.0000   1.0000   1.0000   1.0000
     1.0000   1.0000   1.0000   1.0000   1.0000   1.0000   1.0000   1.0000
     1.0000   1.0000   1.0000   1.0000   1.0000   1.0000   1.0000   1.0000
     1.0000   1.0000   1.0000   1.0000   1.0000   1.0000   1.0000   1.0000
     1.0000   1.0000   1.0000   1.0000   1.0000   1.0000   1.0000   1.0000
     1.0000   1.0000   1.0000   1.0000   1.0000   1.0000   1.0000   1.0000
     1.0000   1.0000   1.0000   1.0000   1.0000   1.0000   1.0000   1.0000
     1.0000   1.0000   1.0000   1.0000   1.0000   1.0000   1.0000   1.0000
     1.0000   1.0000   1.0000   1.0000   1.0000   1.0000   1.0000   1.0000
     1.0000   1.0000   1.0000   1.0000   1.0000   1.0000   1.0000   1.0000
     1.0000   1.0000   1.0000   1.0000   1.0000   1.0000   1.0000   1.0000
     1.0000   1.0000   1.0000   1.0000   1.0000   1.0000   1.0000   1.0000
     1.0000   1.0000   1.0000   1.0000   1.0000   1.0000   1.0000   1.0000
     1.0000   1.0000   1.0000   1.0000   1.0000   1.0000   1.0000   1.0000
     1.0000   1.0000   1.0000   1.0000   1.0000   1.0000   1.0000   1.0000
     1.0000   1.0000   1.0000   1.0000   1.0000   1.0000   1.0000   1.0000
     1.0000   1.0000   1.0000   1.0000   1.0000   1.0000   1.0000   1.0000
     1.0000   1.0000   1.0000   1.0000   1.0000   1.0000   1.0000   1.0000
     1.0000   1.0000   1.0000   1.0000   1.0000   1.0000   1.0000   1.0000
     1.0000   1.0000   1.0000   1.0000   1.0000   1.0000   1.0000   1.0000
     1.0000   1.0000   1.0000   1.0000   1.0000   1.0000   1.0000   1.0000
     1.0000   1.0000   1.0000   1.0000   1.0000   1.0000   1.0000   1.0000
     1.0000   1.0000   1.0000   1.0000   1.0000   1.0000   1.0000   1.0000
     1.0000   1.0000   1.0000   1.0000   1.0000   1.0000   1.0000   1.0000
     1.0000   1.0000   1.0000   1.0000   1.0000   1.0000   1.0000   1.0000
     1.0000   1.0000   1.0000   1.0000   1.0000   1.0000   1.0000   1.0000
     1.0000   1.0000   1.0000   1.0000   1.0000   1.0000   1.0000   1.0000
     1.0000   1.0000   1.0000   1.0000   1.0000   1.0000   1.0000   1.0000
     1.0000   1.0000   1.0000   1.0000   1.0000   1.0000   1.0000   1.0000
     1.0000   1.0000   1.0000   1.0000   1.0000   1.0000   1.0000   1.0000
     1.0000   1.0000   1.0000   1.0000   1.0000   1.0000   1.0000   1.0000
     1.0000   1.0000   1.0000   1.0000   1.0000   1.0000   1.0000   1.0000
     1.0000   1.0000   1.0000   1.0000   1.0000   1.0000   1.0000   1.0000
     1.0000   1.0000   1.0000   1.0000   1.0000   1.0000   1.0000   1.0000
     1.0000   1.0000   1.0000   1.0000   1.0000   1.0000   1.0000   1.0000
     1.0000   1.0000   1.0000   1.0000   1.0000   1.0000   1.0000   1.0000
     1.0000   1.0000   1.0000   1.0000   1.0000   1.0000   1.0000   1.0000
     1.0000   1.0000   1.0000   1.0000   1.0000   1.0000   1.0000   1.0000
     1.0000   1.0000   1.0000   1.0000   1.0000   1.0000   1.0000   1.0000
     1.0000   1.0000   1.0000   1.0000   1.0000   1.0000   1.0000   1.0000
     1.0000   1.0000   1.0000   1.0000   1.0000   1.0000   1.0000   1.0000
     1.0000   1.0000   1.0000   1.0000   1.0000   1.0000   1.0000   1.0000
     1.0000   1.0000   1.0000   1.0000   1.0000   1.0000   1.0000   1.0000
     1.0000   1.0000   1.0000   1.0000   1.0000   1.0000   1.0000   1.0000
     1.0000   1.0000   1.0000   1.0000   1.0000   1.0000   1.0000   1.0000
     1.0000   1.0000   1.0000   1.0000   1.0000   1.0000   1.0000   1.0000
     1.0000   1.0000   1.0000   1.0000   1.0000   1.0000   1.0000   1.0000
     1.0000   1.0000   1.0000   1.0000   1.0000   1.0000   1.0000   1.0000
     1.0000   1.0000   1.0000   1.0000   1.0000   1.0000   1.0000   1.0000
     1.0000   1.0000   1.0000   1.0000   1.0000   1.0000   1.0000   1.0000
     1.0000   1.0000   1.0000   1.0000   1.0000   1.0000   1.0000   1.0000
     1.0000   1.0000   1.0000   1.0000   1.0000   1.0000   1.0000   1.0000
     1.0000   1.0000   1.0000   1.0000   1.0000   1.0000   1.0000   1.0000
     1.0000   1.0000   1.0000   1.0000   1.0000   1.0000   1.0000   1.0000
     1.0000   1.0000   1.0000   1.0000   1.0000   1.0000   1.0000   1.0000
     1.0000   1.0000   1.0000   1.0000   1.0000   1.0000   1.0000   1.0000
     1.0000   1.0000   1.0000   1.0000   1.0000   1.0000   1.0000   1.0000
     1.0000   1.0000   1.0000   1.0000   1.0000   1.0000   1.0000   1.0000
     1.0000   1.0000   1.0000   1.0000   1.0000   1.0000   1.0000   1.0000
     1.0000   1.0000   1.0000   1.0000   1.0000   1.0000   1.0000   1.0000
     1.0000   1.0000   1.0000   1.0000   1.0000   1.0000   1.0000   1.0000
     1.0000   1.0000   1.0000   1.0000   1.0000   1.0000   1.0000   1.0000
     1.0000   1.0000   1.0000   1.0000   1.0000   1.0000   1.0000   1.0000
     1.0000   1.0000   1.0000   1.0000   1.0000   1.0000   1.0000   1.0000
     1.0000   1.0000   1.0000   1.0000   1.0000   1.0000   1.0000   1.0000
     1.0000   1.0000   1.0000   1.0000   1.0000   1.0000   1.0000   1.0000
     1.0000   1.0000   1.0000   1.0000   1.0000   1.0000   1.0000   1.0000
     1.0000   1.0000   1.0000   1.0000   1.0000   1.0000   1.0000   1.0000
     1.0000   1.0000   1.0000   1.0000   1.0000   1.0000   1.0000   1.0000
     1.0000   1.0000   1.0000   1.0000   1.0000   1.0000   1.0000   1.0000
     1.0000   1.0000   1.0000   1.0000   1.0000   1.0000   1.0000   1.0000
     1.0000   1.0000   1.0000   1.0000   1.0000   1.0000   1.0000   1.0000
     1.0000   1.0000   1.0000   1.0000   1.0000   1.0000   1.0000   1.0000
     1.0000   1.0000   1.0000   1.0000   1.0000   1.0000   1.0000   1.0000
     1.0000   1.0000   1.0000   1.0000   1.0000   1.0000   1.0000   1.0000
     1.0000   1.0000   1.0000   1.0000   1.0000   1.0000   1.0000   1.0000
     1.0000   1.0000   1.0000   1.0000   1.0000   1.0000   1.0000   1.0000
     1.0000   1.0000   1.0000   1.0000   1.0000   1.0000   1.0000   1.0000
     1.0000   1.0000   1.0000   1.0000   1.0000   1.0000   1.0000   1.0000
     1.0000   1.0000   1.0000   1.0000   1.0000   1.0000   1.0000   1.0000
     1.0000   1.0000   1.0000   1.0000   1.0000   1.0000   1.0000   1.0000
     1.0000   1.0000   1.0000   1.0000   1.0000   1.0000   1.0000   1.0000
     1.0000   1.0000   1.0000   1.0000   1.0000   1.0000   1.0000   1.0000
     1.0000   1.0000   1.0000   1.0000   1.0000   1.0000   1.0000   1.0000
     1.0000   1.0000   1.0000   1.0000   1.0000   1.0000   1.0000   1.0000
     1.0000   1.0000   0.0000   0.0000   0.0000   0.0000   0.0000   0.0000
     0.0000   0.0000   0.0000   0.0000   0.0000   0.0000   0.0000   0.0000
     0.0000   0.0000   0.0000   0.0000

     the Fermi energy is    10.7566 ev

!    total energy              =  -41212.11964856 Ry
     estimated scf accuracy    <          2.8E-10 Ry
     smearing contrib. (-TS)   =      -0.00000000 Ry
     internal energy E=F+TS    =  -41212.11964856 Ry

     total magnetization       =    -2.00 Bohr mag/cell
     absolute magnetization    =     2.48 Bohr mag/cell

     convergence has been achieved in   2 iterations

     Using ACE for calculation of exact exchange
     ACE projected onto  1260 (nbndproj) and applied to  1260 (nbnd) bands

!!   total energy              =  -41212.11964856 Ry
     Harris-Foulkes estimate   =  -41212.11964856 Ry
     est. exchange err (dexx)  =          7.3E-10 Ry
     - averaged Fock potential =    1963.83291139 Ry
     + Fock energy (ACE)       =    -981.91645759 Ry

     EXX self-consistency reached

     Writing all to output data dir temp/pwscf.save/
 
     init_run     :      7.09s CPU      7.61s WALL (       1 calls)
     electrons    :   2171.19s CPU   2233.05s WALL (      19 calls)

     Called by init_run:
     aceinit0     :      0.00s CPU      0.00s WALL (       1 calls)
     wfcinit      :      4.99s CPU      5.25s WALL (       1 calls)
     wfcinit:atom :      0.01s CPU      0.03s WALL (       1 calls)
     wfcinit:wfcr :      4.56s CPU      4.74s WALL (       1 calls)
     potinit      :      0.98s CPU      1.03s WALL (       1 calls)
     hinit0       :      0.91s CPU      1.12s WALL (       1 calls)

     Called by electrons:
     c_bands      :   2098.90s CPU   2157.75s WALL (      58 calls)
     sum_band     :     52.14s CPU     53.09s WALL (      58 calls)
     v_of_rho     :      8.75s CPU      9.18s WALL (      58 calls)
     v_h          :      0.36s CPU      0.37s WALL (      58 calls)
     v_xc         :      8.38s CPU      8.79s WALL (      58 calls)
     mix_rho      :      1.40s CPU      1.60s WALL (      58 calls)

     Called by c_bands:
     init_us_2    :      5.53s CPU      5.83s WALL (     117 calls)
     init_us_2:cp :      5.53s CPU      5.83s WALL (     117 calls)
     regterg      :   2004.64s CPU   2062.75s WALL (      58 calls)

     Called by sum_band:
     sum_band:wei :      0.17s CPU      0.20s WALL (      58 calls)
     sum_band:loo :     20.13s CPU     20.42s WALL (      58 calls)
     sum_band:buf :      0.00s CPU      0.00s WALL (      58 calls)
     sum_band:ini :      2.79s CPU      2.91s WALL (      58 calls)

     Called by *egterg:
     rdiaghg      :    862.82s CPU    866.19s WALL (     311 calls)
     regterg:over :    264.03s CPU    270.61s WALL (     273 calls)
     regterg:upda :     38.84s CPU     47.25s WALL (     273 calls)
     regterg:last :     78.01s CPU     96.20s WALL (     129 calls)
     h_psi        :    495.30s CPU    502.47s WALL (     332 calls)
     g_psi        :      0.96s CPU      0.99s WALL (     273 calls)

     Called by h_psi:
     h_psi:calbec :     90.26s CPU     91.45s WALL (     332 calls)
     vloc_psi     :    199.38s CPU    201.29s WALL (     332 calls)
     add_vuspsi   :     84.16s CPU     84.99s WALL (     332 calls)

     General routines
     calbec       :    169.22s CPU    171.09s WALL (     636 calls)
     fft          :      3.78s CPU      4.08s WALL (     830 calls)
     ffts         :      6.49s CPU      6.63s WALL (     116 calls)
     fftw         :    175.67s CPU    177.13s WALL (  160702 calls)
     fftc         :   4338.57s CPU   4369.80s WALL ( 7445340 calls)
     fftcw        :     15.64s CPU     15.82s WALL (   20995 calls)
 
     Parallel routines

     EXX routines
     exx_grid     :      0.00s CPU      0.00s WALL (       1 calls)
     exxinit      :     54.05s CPU     56.06s WALL (      19 calls)
     vexx         :   6632.67s CPU   6691.90s WALL (      19 calls)
     matcalc      :     79.47s CPU     80.19s WALL (     304 calls)
     aceupdate    :      7.45s CPU      8.01s WALL (      19 calls)
     vexxace      :    169.74s CPU    173.55s WALL (     248 calls)
     aceinit      :   6648.38s CPU   6708.33s WALL (      19 calls)
 
     PWSCF        :      2h30m CPU      2h33m WALL

 
   This run was terminated on:  20:23:55   2Dec2024            

=------------------------------------------------------------------------------=
   JOB DONE.
=------------------------------------------------------------------------------=
