
     Program PWSCF v.7.3 starts on 28Dec2024 at  9:28:43 

     This program is part of the open-source Quantum ESPRESSO suite
     for quantum simulation of materials; please cite
         "P. Giannozzi et al., J. Phys.:Condens. Matter 21 395502 (2009);
         "P. Giannozzi et al., J. Phys.:Condens. Matter 29 465901 (2017);
         "P. Giannozzi et al., J. Chem. Phys. 152 154105 (2020);
          URL http://www.quantum-espresso.org", 
     in publications or presentations arising from this work. More details at
     http://www.quantum-espresso.org/quote

     Parallel version (MPI & OpenMP), running on     256 processor cores
     Number of MPI processes:               256
     Threads/MPI process:                     1

     MPI processes distributed on     4 nodes
     473116 MiB available memory on the printing compute node when the environment starts

     Reading input from nscf.in
Warning: card &IONS ignored
Warning: card / ignored
Warning: card &CELL ignored
Warning: card / ignored

     Current dimensions of program PWSCF are:
     Max number of different atomic species (ntypx) = 10
     Max number of k-points (npk) =  40000
     Max angular momentum in pseudopotentials (lmaxx) =  4

     IMPORTANT: XC functional enforced from input :
     Exchange-correlation= PBE0
                           (   6   4   8   4   0   0   0)
     EXX-fraction              =        0.25
     Any further DFT definition will be discarded
     Please, verify this is what you really want


     Atomic positions and unit cell read from directory:
     ./pwscf.save/


     gamma-point specific algorithms are used

     band groups division:  nbgrp     =      16
     R & G space division:  proc/nbgrp/npool/nimage =      16
     Subspace diagonalization in iterative solution of the eigenvalue problem:
     a serial algorithm will be used

     EXX: q-point mesh:     1    1    1
     EXX: grid of k+q points same as grid of k-points

     Parallelization info
     --------------------
     sticks:   dense  smooth     PW     G-vecs:    dense   smooth      PW
     Min         623     623    155                60463    60463    7555
     Max         626     626    160                60472    60472    7564
     Sum        9985    9985   2503               967453   967453  120943

     Using Slab Decomposition



     bravais-lattice index     =            0
     lattice parameter (alat)  =      24.5558  a.u.
     unit-cell volume          =   15406.2245 (a.u.)^3
     number of atoms/cell      =          191
     number of atomic types    =            3
     number of electrons       =      2482.00 (up:1242.00, down:1240.00)
     number of Kohn-Sham states=         2800
     kinetic-energy cutoff     =      60.0000  Ry
     charge density cutoff     =     240.0000  Ry
     cutoff for Fock operator  =     120.0000  Ry
     Exchange-correlation= PBE0
                           (   6   4   8   4   0   0   0)
     EXX-fraction              =        0.25

     celldm(1)=  24.555771  celldm(2)=   0.000000  celldm(3)=   0.000000
     celldm(4)=   0.000000  celldm(5)=   0.000000  celldm(6)=   0.000000

     crystal axes: (cart. coord. in units of alat)
               a(1) = (   1.000000   0.000000   0.000000 )  
               a(2) = (  -0.500000   0.866025   0.000000 )  
               a(3) = (   0.000000   0.000000   1.201448 )  

     reciprocal axes: (cart. coord. in units 2 pi/alat)
               b(1) = (  1.000000  0.577350 -0.000000 )  
               b(2) = (  0.000000  1.154701  0.000000 )  
               b(3) = (  0.000000 -0.000000  0.832329 )  


     PseudoPot. # 1 for Zn read from file:
     /global/homes/s/szhan213/Pseudopotential/pseudo-ONCV-proj/Zn_ONCV_PBE-1.0.upf
     MD5 check sum: ae6b10b2f6b19ce60903c0642ac7817b
     Pseudo is Norm-conserving, Zval = 20.0
     Generated using ONCVPSP code by D. R. Hamann
     Using radial grid of 1326 points,  6 beta functions with: 
                l(1) =   0
                l(2) =   0
                l(3) =   1
                l(4) =   1
                l(5) =   2
                l(6) =   2

     PseudoPot. # 2 for O  read from file:
     /global/homes/s/szhan213/Pseudopotential/pseudo-ONCV-proj/O_ONCV_PBE-1.0.upf
     MD5 check sum: 4746e673ba7a0ba6c5be19d6c81ea579
     Pseudo is Norm-conserving, Zval =  6.0
     Generated using ONCVPSP code by D. R. Hamann
     Using radial grid of  936 points,  4 beta functions with: 
                l(1) =   0
                l(2) =   0
                l(3) =   1
                l(4) =   1

     PseudoPot. # 3 for Mo read from file:
     /global/homes/s/szhan213/Pseudopotential/pseudo-ONCV-proj/Mo_ONCV_PBE-1.0.upf
     MD5 check sum: 272e1c7cc7058c6684d95c2d78a865d8
     Pseudo is Norm-conserving, Zval = 14.0
     Generated using ONCVPSP code by D. R. Hamann
     Using radial grid of 1526 points,  6 beta functions with: 
                l(1) =   0
                l(2) =   0
                l(3) =   1
                l(4) =   1
                l(5) =   2
                l(6) =   2

     atomic species   valence    mass     pseudopotential
     Zn               20.00    65.39000     Zn( 1.00)
     O                 6.00    15.99940     O ( 1.00)
     Mo               14.00    95.94000     Mo( 1.00)

     Starting magnetic structure 
     atomic species   magnetization
     Zn              0.000
     O               0.000
     Mo              0.000

     No symmetry found


                                    s                        frac. trans.

      isym =  1     identity                                     

 cryst.   s( 1) = (     1          0          0      )
                  (     0          1          0      )
                  (     0          0          1      )

 cart.    s( 1) = (  1.0000000  0.0000000  0.0000000 )
                  (  0.0000000  1.0000000  0.0000000 )
                  (  0.0000000  0.0000000  1.0000000 )


   Cartesian axes

     site n.     atom                  positions (alat units)
         1        Zn     tau(   1) = (   0.1248840   0.0722357   0.1987950  )
         2        Zn     tau(   2) = (   0.1250890   0.0721174   0.6004059  )
         3        Zn     tau(   3) = (   0.1247781   0.0722969   1.0016715  )
         4        Zn     tau(   4) = (  -0.0004526   0.2884138   0.1989904  )
         5        Zn     tau(   5) = (  -0.0011980   0.2879835   0.6001881  )
         6        Zn     tau(   6) = (  -0.0002568   0.2885269   1.0016658  )
         7        Zn     tau(   7) = (  -0.1250000   0.5050475   0.1987950  )
         8        Zn     tau(   8) = (  -0.1250000   0.5052841   0.6004059  )
         9        Zn     tau(   9) = (  -0.1250000   0.5049252   1.0016715  )
        10        Zn     tau(  10) = (  -0.2497729   0.7218189   0.1987837  )
        11        Zn     tau(  11) = (  -0.2490655   0.7222273   0.6009698  )
        12        Zn     tau(  12) = (  -0.2497932   0.7218071   1.0018110  )
        13        Zn     tau(  13) = (   0.3750000   0.0719066   0.1987837  )
        14        Zn     tau(  14) = (   0.3750000   0.0710897   0.6009698  )
        15        Zn     tau(  15) = (   0.3750000   0.0719301   1.0018110  )
        16        Zn     tau(  16) = (   0.2489614   0.2878847   0.1992100  )
        17        Zn     tau(  17) = (   0.2435369   0.2832825   0.6032470  )
        18        Zn     tau(  18) = (   0.2506753   0.2891094   1.0013360  )
        19        Zn     tau(  19) = (   0.1237962   0.5046772   0.1992100  )
        20        Zn     tau(  20) = (   0.1170983   0.5022805   0.6032470  )
        21        Zn     tau(  21) = (   0.1257137   0.5055491   1.0013360  )
        22        Zn     tau(  22) = (  -0.0002270   0.7218189   0.1987837  )
        23        Zn     tau(  23) = (  -0.0009344   0.7222273   0.6009698  )
        24        Zn     tau(  24) = (  -0.0002066   0.7218071   1.0018110  )
        25        Zn     tau(  25) = (   0.6251160   0.0722357   0.1987950  )
        26        Zn     tau(  26) = (   0.6249111   0.0721174   0.6004059  )
        27        Zn     tau(  27) = (   0.6252220   0.0722969   1.0016715  )
        28        Zn     tau(  28) = (   0.5010386   0.2878847   0.1992100  )
        29        Zn     tau(  29) = (   0.5064631   0.2832825   0.6032470  )
        30        Zn     tau(  30) = (   0.4993248   0.2891094   1.0013360  )
        31        Zn     tau(  31) = (   0.3750001   0.5051814   0.2004931  )
        32        Zn     tau(  32) = (   0.3750001   0.5051814   1.0031665  )
        33        Zn     tau(  33) = (   0.2498348   0.7229824   0.1992100  )
        34        Zn     tau(  34) = (   0.2485614   0.7299813   0.6032470  )
        35        Zn     tau(  35) = (   0.2500385   0.7208859   1.0013360  )
        36        Zn     tau(  36) = (   0.8750000   0.0726914   0.1989904  )
        37        Zn     tau(  37) = (   0.8750000   0.0735521   0.6001881  )
        38        Zn     tau(  38) = (   0.8750000   0.0724653   1.0016658  )
        39        Zn     tau(  39) = (   0.7504526   0.2884138   0.1989904  )
        40        Zn     tau(  40) = (   0.7511980   0.2879835   0.6001881  )
        41        Zn     tau(  41) = (   0.7502568   0.2885269   1.0016658  )
        42        Zn     tau(  42) = (   0.6262039   0.5046772   0.1992100  )
        43        Zn     tau(  43) = (   0.6329018   0.5022805   0.6032470  )
        44        Zn     tau(  44) = (   0.6242864   0.5055491   1.0013360  )
        45        Zn     tau(  45) = (   0.5001653   0.7229824   0.1992100  )
        46        Zn     tau(  46) = (   0.5014387   0.7299813   0.6032470  )
        47        Zn     tau(  47) = (   0.4999616   0.7208859   1.0013360  )
        48        Zn     tau(  48) = (  -0.0000245   0.1443517   1.2011361  )
        49        Zn     tau(  49) = (  -0.0000684   0.1443771   0.3990909  )
        50        Zn     tau(  50) = (  -0.0001009   0.1443958   0.8011350  )
        51        Zn     tau(  51) = (  -0.1250000   0.3608156   1.2011361  )
        52        Zn     tau(  52) = (  -0.1250000   0.3607649   0.3990909  )
        53        Zn     tau(  53) = (  -0.1250000   0.3607274   0.8011350  )
        54        Zn     tau(  54) = (  -0.2500072   0.5773395   1.2010265  )
        55        Zn     tau(  55) = (  -0.2486634   0.5780181   0.3986418  )
        56        Zn     tau(  56) = (  -0.2494406   0.5778324   0.8024030  )
        57        Zn     tau(  57) = (  -0.3750129   0.7938557   1.2010265  )
        58        Zn     tau(  58) = (  -0.3737533   0.7946802   0.3986418  )
        59        Zn     tau(  59) = (  -0.3743028   0.7940999   0.8024030  )
        60        Zn     tau(  60) = (   0.2499943   0.1443492   1.2010265  )
        61        Zn     tau(  61) = (   0.2499101   0.1428461   0.3986418  )
        62        Zn     tau(  62) = (   0.2501379   0.1436121   0.8024030  )
        63        Zn     tau(  63) = (   0.1250071   0.3608480   1.2010352  )
        64        Zn     tau(  64) = (   0.1237059   0.3600968   0.3990543  )
        65        Zn     tau(  65) = (   0.1241012   0.3603250   0.8032345  )
        66        Zn     tau(  66) = (   0.0000073   0.5773395   1.2010265  )
        67        Zn     tau(  67) = (  -0.0013366   0.5780181   0.3986418  )
        68        Zn     tau(  68) = (  -0.0005593   0.5778324   0.8024030  )
        69        Zn     tau(  69) = (  -0.1250000   0.7938566   1.2010657  )
        70        Zn     tau(  70) = (  -0.1250000   0.7938566   0.3990225  )
        71        Zn     tau(  71) = (  -0.1250000   0.7938566   0.8013708  )
        72        Zn     tau(  72) = (   0.5000057   0.1443492   1.2010265  )
        73        Zn     tau(  73) = (   0.5000899   0.1428461   0.3986418  )
        74        Zn     tau(  74) = (   0.4998621   0.1436121   0.8024030  )
        75        Zn     tau(  75) = (   0.3750000   0.3607172   0.0016607  )
        76        Zn     tau(  76) = (   0.3750000   0.3579017   0.3927764  )
        77        Zn     tau(  77) = (   0.3750000   0.3630743   0.7984601  )
        78        Zn     tau(  78) = (   0.2498902   0.5774136   0.0016607  )
        79        Zn     tau(  79) = (   0.2474519   0.5788214   0.3927764  )
        80        Zn     tau(  80) = (   0.2519316   0.5762350   0.7984601  )
        81        Zn     tau(  81) = (   0.1250129   0.7938557   1.2010265  )
        82        Zn     tau(  82) = (   0.1237533   0.7946802   0.3986418  )
        83        Zn     tau(  83) = (   0.1243028   0.7940999   0.8024030  )
        84        Zn     tau(  84) = (   0.7500245   0.1443517   1.2011361  )
        85        Zn     tau(  85) = (   0.7500684   0.1443771   0.3990909  )
        86        Zn     tau(  86) = (   0.7501009   0.1443958   0.8011350  )
        87        Zn     tau(  87) = (   0.6249929   0.3608480   1.2010352  )
        88        Zn     tau(  88) = (   0.6262941   0.3600968   0.3990543  )
        89        Zn     tau(  89) = (   0.6258988   0.3603250   0.8032345  )
        90        Zn     tau(  90) = (   0.5001097   0.5774136   0.0016607  )
        91        Zn     tau(  91) = (   0.5025481   0.5788214   0.3927764  )
        92        Zn     tau(  92) = (   0.4980684   0.5762350   0.7984601  )
        93        Zn     tau(  93) = (   0.3750000   0.7938484   1.2010352  )
        94        Zn     tau(  94) = (   0.3750000   0.7953508   0.3990543  )
        95        Zn     tau(  95) = (   0.3750000   0.7948944   0.8032345  )
        96        O      tau(  96) = (   0.1247958   0.0722867   0.3521688  )
        97        O      tau(  97) = (   0.1251920   0.0720579   0.7526373  )
        98        O      tau(  98) = (   0.1250104   0.0721628   1.1539232  )
        99        O      tau(  99) = (  -0.0001343   0.2885976   0.3523886  )
       100        O      tau( 100) = (   0.0004021   0.2889073   0.7523657  )
       101        O      tau( 101) = (   0.0001635   0.2887695   1.1539378  )
       102        O      tau( 102) = (  -0.1250000   0.5049456   0.3521688  )
       103        O      tau( 103) = (  -0.1250000   0.5054031   0.7526373  )
       104        O      tau( 104) = (  -0.1250000   0.5051935   1.1539232  )
       105        O      tau( 105) = (  -0.2499963   0.7216899   0.3521196  )
       106        O      tau( 106) = (  -0.2502929   0.7215186   0.7530099  )
       107        O      tau( 107) = (  -0.2500820   0.7216404   1.1539780  )
       108        O      tau( 108) = (   0.3750000   0.0721646   0.3521196  )
       109        O      tau( 109) = (   0.3750000   0.0725071   0.7530099  )
       110        O      tau( 110) = (   0.3750000   0.0722635   1.1539780  )
       111        O      tau( 111) = (   0.2497225   0.2885482   0.3539584  )
       112        O      tau( 112) = (   0.2506663   0.2899646   0.7533174  )
       113        O      tau( 113) = (   0.2507022   0.2892056   1.1537912  )
       114        O      tau( 114) = (   0.1247514   0.5050046   0.3539584  )
       115        O      tau( 115) = (   0.1264499   0.5051137   0.7533174  )
       116        O      tau( 116) = (   0.1258105   0.5055243   1.1537912  )
       117        O      tau( 117) = (  -0.0000036   0.7216899   0.3521196  )
       118        O      tau( 118) = (   0.0002930   0.7215186   0.7530099  )
       119        O      tau( 119) = (   0.0000821   0.7216404   1.1539780  )
       120        O      tau( 120) = (   0.6252042   0.0722867   0.3521688  )
       121        O      tau( 121) = (   0.6248080   0.0720579   0.7526373  )
       122        O      tau( 122) = (   0.6249896   0.0721628   1.1539232  )
       123        O      tau( 123) = (   0.5002775   0.2885482   0.3539584  )
       124        O      tau( 124) = (   0.4993338   0.2899646   0.7533174  )
       125        O      tau( 125) = (   0.4992979   0.2892056   1.1537912  )
       126        O      tau( 126) = (   0.3750001   0.5051814   0.3594347  )
       127        O      tau( 127) = (   0.3750001   0.5051814   1.1548646  )
       128        O      tau( 128) = (   0.2500289   0.7219915   0.3539584  )
       129        O      tau( 129) = (   0.2507837   0.7204660   0.7533174  )
       130        O      tau( 130) = (   0.2501084   0.7208144   1.1537912  )
       131        O      tau( 131) = (   0.8750000   0.0723239   0.3523886  )
       132        O      tau( 132) = (   0.8750000   0.0717045   0.7523657  )
       133        O      tau( 133) = (   0.8750000   0.0719800   1.1539378  )
       134        O      tau( 134) = (   0.7501343   0.2885976   0.3523886  )
       135        O      tau( 135) = (   0.7495979   0.2889073   0.7523657  )
       136        O      tau( 136) = (   0.7498365   0.2887695   1.1539378  )
       137        O      tau( 137) = (   0.6252487   0.5050046   0.3539584  )
       138        O      tau( 138) = (   0.6235502   0.5051137   0.7533174  )
       139        O      tau( 139) = (   0.6241896   0.5055243   1.1537912  )
       140        O      tau( 140) = (   0.4999713   0.7219915   0.3539584  )
       141        O      tau( 141) = (   0.4992164   0.7204660   0.7533174  )
       142        O      tau( 142) = (   0.4998917   0.7208144   1.1537912  )
       143        O      tau( 143) = (   0.0000260   0.1443226   0.1524675  )
       144        O      tau( 144) = (   0.0004524   0.1440764   0.5523136  )
       145        O      tau( 145) = (  -0.0000083   0.1443424   0.9531247  )
       146        O      tau( 146) = (  -0.1250000   0.3608739   0.1524675  )
       147        O      tau( 147) = (  -0.1250000   0.3613663   0.5523136  )
       148        O      tau( 148) = (  -0.1250000   0.3608343   0.9531247  )
       149        O      tau( 149) = (  -0.2500961   0.5773104   0.1525949  )
       150        O      tau( 150) = (  -0.2500544   0.5780127   0.5520186  )
       151        O      tau( 151) = (  -0.2504230   0.5772322   0.9538437  )
       152        O      tau( 152) = (  -0.3750825   0.7937933   0.1525949  )
       153        O      tau( 153) = (  -0.3744535   0.7934782   0.5520186  )
       154        O      tau( 154) = (  -0.3753137   0.7935493   0.9538437  )
       155        O      tau( 155) = (   0.2500135   0.1444407   0.1525949  )
       156        O      tau( 156) = (   0.2506009   0.1440535   0.5520186  )
       157        O      tau( 157) = (   0.2501093   0.1447629   0.9538437  )
       158        O      tau( 158) = (   0.1250035   0.3608459   0.1528834  )
       159        O      tau( 159) = (   0.1257103   0.3612540   0.5526041  )
       160        O      tau( 160) = (   0.1252805   0.3610058   0.9542483  )
       161        O      tau( 161) = (   0.0000961   0.5773104   0.1525949  )
       162        O      tau( 162) = (   0.0000545   0.5780127   0.5520186  )
       163        O      tau( 163) = (   0.0004230   0.5772322   0.9538437  )
       164        O      tau( 164) = (  -0.1250000   0.7938566   0.1523509  )
       165        O      tau( 165) = (  -0.1250000   0.7938566   0.5521011  )
       166        O      tau( 166) = (  -0.1250000   0.7938566   0.9533347  )
       167        O      tau( 167) = (   0.4999865   0.1444407   0.1525949  )
       168        O      tau( 168) = (   0.4993991   0.1440535   0.5520186  )
       169        O      tau( 169) = (   0.4998907   0.1447629   0.9538437  )
       170        O      tau( 170) = (   0.3750000   0.3611225   0.1556514  )
       171        O      tau( 171) = (   0.3750000   0.3650827   0.5588865  )
       172        O      tau( 172) = (   0.3750000   0.3627542   0.9492347  )
       173        O      tau( 173) = (   0.2502413   0.5772110   0.1556514  )
       174        O      tau( 174) = (   0.2536709   0.5752309   0.5588865  )
       175        O      tau( 175) = (   0.2516544   0.5763951   0.9492347  )
       176        O      tau( 176) = (   0.1250826   0.7937933   0.1525949  )
       177        O      tau( 177) = (   0.1244535   0.7934782   0.5520186  )
       178        O      tau( 178) = (   0.1253137   0.7935493   0.9538437  )
       179        O      tau( 179) = (   0.7499740   0.1443226   0.1524675  )
       180        O      tau( 180) = (   0.7495476   0.1440764   0.5523136  )
       181        O      tau( 181) = (   0.7500083   0.1443424   0.9531247  )
       182        O      tau( 182) = (   0.6249965   0.3608459   0.1528834  )
       183        O      tau( 183) = (   0.6242897   0.3612540   0.5526041  )
       184        O      tau( 184) = (   0.6247195   0.3610058   0.9542483  )
       185        O      tau( 185) = (   0.4997587   0.5772110   0.1556514  )
       186        O      tau( 186) = (   0.4963291   0.5752309   0.5588865  )
       187        O      tau( 187) = (   0.4983456   0.5763951   0.9492347  )
       188        O      tau( 188) = (   0.3750000   0.7938525   0.1528834  )
       189        O      tau( 189) = (   0.3750000   0.7930364   0.5526041  )
       190        O      tau( 190) = (   0.3750000   0.7935328   0.9542483  )
       191        Mo     tau( 191) = (   0.3750001   0.5051814   0.5974195  )

   Crystallographic axes

     site n.     atom                  positions (cryst. coord.)
         1        Zn     tau(   1) = (  0.1665894  0.0834106  0.1654629  )
         2        Zn     tau(   2) = (  0.1667260  0.0832740  0.4997353  )
         3        Zn     tau(   3) = (  0.1665187  0.0834813  0.8337203  )
         4        Zn     tau(   4) = (  0.1660632  0.3330316  0.1656255  )
         5        Zn     tau(   5) = (  0.1650694  0.3325347  0.4995540  )
         6        Zn     tau(   6) = (  0.1663243  0.3331621  0.8337156  )
         7        Zn     tau(   7) = (  0.1665894  0.5831787  0.1654629  )
         8        Zn     tau(   8) = (  0.1667260  0.5834519  0.4997353  )
         9        Zn     tau(   9) = (  0.1665187  0.5830374  0.8337203  )
        10        Zn     tau(  10) = (  0.1669694  0.8334847  0.1654534  )
        11        Zn     tau(  11) = (  0.1679126  0.8339563  0.5002046  )
        12        Zn     tau(  12) = (  0.1669423  0.8334711  0.8338365  )
        13        Zn     tau(  13) = (  0.4165153  0.0830306  0.1654534  )
        14        Zn     tau(  14) = (  0.4160437  0.0820874  0.5002046  )
        15        Zn     tau(  15) = (  0.4165289  0.0830577  0.8338365  )
        16        Zn     tau(  16) = (  0.4151717  0.3324206  0.1658083  )
        17        Zn     tau(  17) = (  0.4070902  0.3271065  0.5021000  )
        18        Zn     tau(  18) = (  0.4175926  0.3338348  0.8334411  )
        19        Zn     tau(  19) = (  0.4151717  0.5827510  0.1658083  )
        20        Zn     tau(  20) = (  0.4070902  0.5799837  0.5021000  )
        21        Zn     tau(  21) = (  0.4175926  0.5837578  0.8334411  )
        22        Zn     tau(  22) = (  0.4165153  0.8334847  0.1654534  )
        23        Zn     tau(  23) = (  0.4160437  0.8339563  0.5002046  )
        24        Zn     tau(  24) = (  0.4165289  0.8334711  0.8338365  )
        25        Zn     tau(  25) = (  0.6668213  0.0834106  0.1654629  )
        26        Zn     tau(  26) = (  0.6665481  0.0832740  0.4997353  )
        27        Zn     tau(  27) = (  0.6669626  0.0834813  0.8337203  )
        28        Zn     tau(  28) = (  0.6672490  0.3324206  0.1658083  )
        29        Zn     tau(  29) = (  0.6700163  0.3271065  0.5021000  )
        30        Zn     tau(  30) = (  0.6662422  0.3338348  0.8334411  )
        31        Zn     tau(  31) = (  0.6666667  0.5833333  0.1668763  )
        32        Zn     tau(  32) = (  0.6666667  0.5833333  0.8349646  )
        33        Zn     tau(  33) = (  0.6672490  0.8348283  0.1658083  )
        34        Zn     tau(  34) = (  0.6700163  0.8429098  0.5021000  )
        35        Zn     tau(  35) = (  0.6662422  0.8324074  0.8334411  )
        36        Zn     tau(  36) = (  0.9169684  0.0839368  0.1656255  )
        37        Zn     tau(  37) = (  0.9174653  0.0849307  0.4995540  )
        38        Zn     tau(  38) = (  0.9168379  0.0836757  0.8337156  )
        39        Zn     tau(  39) = (  0.9169684  0.3330316  0.1656255  )
        40        Zn     tau(  40) = (  0.9174653  0.3325347  0.4995540  )
        41        Zn     tau(  41) = (  0.9168379  0.3331621  0.8337156  )
        42        Zn     tau(  42) = (  0.9175794  0.5827510  0.1658083  )
        43        Zn     tau(  43) = (  0.9228936  0.5799837  0.5021000  )
        44        Zn     tau(  44) = (  0.9161653  0.5837578  0.8334411  )
        45        Zn     tau(  45) = (  0.9175794  0.8348283  0.1658083  )
        46        Zn     tau(  46) = (  0.9228936  0.8429098  0.5021000  )
        47        Zn     tau(  47) = (  0.9161653  0.8324074  0.8334411  )
        48        Zn     tau(  48) = (  0.0833170  0.1666830  0.9997405  )
        49        Zn     tau(  49) = (  0.0832877  0.1667123  0.3321750  )
        50        Zn     tau(  50) = (  0.0832661  0.1667339  0.6668080  )
        51        Zn     tau(  51) = (  0.0833170  0.4166340  0.9997405  )
        52        Zn     tau(  52) = (  0.0832877  0.4165755  0.3321750  )
        53        Zn     tau(  53) = (  0.0832661  0.4165321  0.6668080  )
        54        Zn     tau(  54) = (  0.0833199  0.6666543  0.9996493  )
        55        Zn     tau(  55) = (  0.0850555  0.6674379  0.3318011  )
        56        Zn     tau(  56) = (  0.0841710  0.6672234  0.6678634  )
        57        Zn     tau(  57) = (  0.0833199  0.9166657  0.9996493  )
        58        Zn     tau(  58) = (  0.0850555  0.9176177  0.3318011  )
        59        Zn     tau(  59) = (  0.0841710  0.9169477  0.6678634  )
        60        Zn     tau(  60) = (  0.3333344  0.1666801  0.9996493  )
        61        Zn     tau(  61) = (  0.3323823  0.1649445  0.3318011  )
        62        Zn     tau(  62) = (  0.3330523  0.1658290  0.6678634  )
        63        Zn     tau(  63) = (  0.3333428  0.4166714  0.9996566  )
        64        Zn     tau(  64) = (  0.3316079  0.4158040  0.3321445  )
        65        Zn     tau(  65) = (  0.3321349  0.4160675  0.6685555  )
        66        Zn     tau(  66) = (  0.3333344  0.6666543  0.9996493  )
        67        Zn     tau(  67) = (  0.3323823  0.6674379  0.3318011  )
        68        Zn     tau(  68) = (  0.3330523  0.6672234  0.6678634  )
        69        Zn     tau(  69) = (  0.3333333  0.9166667  0.9996819  )
        70        Zn     tau(  70) = (  0.3333333  0.9166667  0.3321181  )
        71        Zn     tau(  71) = (  0.3333333  0.9166667  0.6670043  )
        72        Zn     tau(  72) = (  0.5833457  0.1666801  0.9996493  )
        73        Zn     tau(  73) = (  0.5825621  0.1649445  0.3318011  )
        74        Zn     tau(  74) = (  0.5827766  0.1658290  0.6678634  )
        75        Zn     tau(  75) = (  0.5832601  0.4165204  0.0013823  )
        76        Zn     tau(  76) = (  0.5816346  0.4132693  0.3269192  )
        77        Zn     tau(  77) = (  0.5846211  0.4192422  0.6645816  )
        78        Zn     tau(  78) = (  0.5832601  0.6667399  0.0013823  )
        79        Zn     tau(  79) = (  0.5816346  0.6683654  0.3269192  )
        80        Zn     tau(  80) = (  0.5846211  0.6653789  0.6645816  )
        81        Zn     tau(  81) = (  0.5833457  0.9166657  0.9996493  )
        82        Zn     tau(  82) = (  0.5825621  0.9176177  0.3318011  )
        83        Zn     tau(  83) = (  0.5827766  0.9169477  0.6678634  )
        84        Zn     tau(  84) = (  0.8333660  0.1666830  0.9997405  )
        85        Zn     tau(  85) = (  0.8334245  0.1667123  0.3321750  )
        86        Zn     tau(  86) = (  0.8334679  0.1667339  0.6668080  )
        87        Zn     tau(  87) = (  0.8333286  0.4166714  0.9996566  )
        88        Zn     tau(  88) = (  0.8341960  0.4158040  0.3321445  )
        89        Zn     tau(  89) = (  0.8339325  0.4160675  0.6685555  )
        90        Zn     tau(  90) = (  0.8334796  0.6667399  0.0013823  )
        91        Zn     tau(  91) = (  0.8367307  0.6683654  0.3269192  )
        92        Zn     tau(  92) = (  0.8307578  0.6653789  0.6645816  )
        93        Zn     tau(  93) = (  0.8333286  0.9166573  0.9996566  )
        94        Zn     tau(  94) = (  0.8341960  0.9183921  0.3321445  )
        95        Zn     tau(  95) = (  0.8339325  0.9178651  0.6685555  )
        96        O      tau(  96) = (  0.1665305  0.0834695  0.2931203  )
        97        O      tau(  97) = (  0.1667947  0.0832053  0.6264419  )
        98        O      tau(  98) = (  0.1666736  0.0833264  0.9604439  )
        99        O      tau(  99) = (  0.1664876  0.3332438  0.2933033  )
       100        O      tau( 100) = (  0.1672028  0.3336014  0.6262158  )
       101        O      tau( 101) = (  0.1668847  0.3334424  0.9604560  )
       102        O      tau( 102) = (  0.1665305  0.5830610  0.2931203  )
       103        O      tau( 103) = (  0.1667947  0.5835893  0.6264419  )
       104        O      tau( 104) = (  0.1666736  0.5833472  0.9604439  )
       105        O      tau( 105) = (  0.1666715  0.8333357  0.2930794  )
       106        O      tau( 106) = (  0.1662761  0.8331380  0.6267521  )
       107        O      tau( 107) = (  0.1665573  0.8332786  0.9604895  )
       108        O      tau( 108) = (  0.4166643  0.0833285  0.2930794  )
       109        O      tau( 109) = (  0.4168620  0.0837239  0.6267521  )
       110        O      tau( 110) = (  0.4167214  0.0834427  0.9604895  )
       111        O      tau( 111) = (  0.4163159  0.3331868  0.2946099  )
       112        O      tau( 112) = (  0.4180774  0.3348223  0.6270080  )
       113        O      tau( 113) = (  0.4176751  0.3339459  0.9603340  )
       114        O      tau( 114) = (  0.4163159  0.5831291  0.2946099  )
       115        O      tau( 115) = (  0.4180774  0.5832551  0.6270080  )
       116        O      tau( 116) = (  0.4176751  0.5837292  0.9603340  )
       117        O      tau( 117) = (  0.4166643  0.8333357  0.2930794  )
       118        O      tau( 118) = (  0.4168620  0.8331380  0.6267521  )
       119        O      tau( 119) = (  0.4167214  0.8332786  0.9604895  )
       120        O      tau( 120) = (  0.6669390  0.0834695  0.2931203  )
       121        O      tau( 121) = (  0.6664107  0.0832053  0.6264419  )
       122        O      tau( 122) = (  0.6666528  0.0833264  0.9604439  )
       123        O      tau( 123) = (  0.6668709  0.3331868  0.2946099  )
       124        O      tau( 124) = (  0.6667449  0.3348223  0.6270080  )
       125        O      tau( 125) = (  0.6662708  0.3339459  0.9603340  )
       126        O      tau( 126) = (  0.6666667  0.5833333  0.2991679  )
       127        O      tau( 127) = (  0.6666667  0.5833333  0.9612274  )
       128        O      tau( 128) = (  0.6668709  0.8336841  0.2946099  )
       129        O      tau( 129) = (  0.6667449  0.8319226  0.6270080  )
       130        O      tau( 130) = (  0.6662708  0.8323249  0.9603340  )
       131        O      tau( 131) = (  0.9167562  0.0835124  0.2933033  )
       132        O      tau( 132) = (  0.9163986  0.0827972  0.6262158  )
       133        O      tau( 133) = (  0.9165577  0.0831153  0.9604560  )
       134        O      tau( 134) = (  0.9167562  0.3332438  0.2933033  )
       135        O      tau( 135) = (  0.9163986  0.3336014  0.6262158  )
       136        O      tau( 136) = (  0.9165577  0.3334424  0.9604560  )
       137        O      tau( 137) = (  0.9168133  0.5831291  0.2946099  )
       138        O      tau( 138) = (  0.9151777  0.5832551  0.6270080  )
       139        O      tau( 139) = (  0.9160541  0.5837292  0.9603340  )
       140        O      tau( 140) = (  0.9168133  0.8336841  0.2946099  )
       141        O      tau( 141) = (  0.9151777  0.8319226  0.6270080  )
       142        O      tau( 142) = (  0.9160541  0.8323249  0.9603340  )
       143        O      tau( 143) = (  0.0833507  0.1666493  0.1269032  )
       144        O      tau( 144) = (  0.0836349  0.1663651  0.4597067  )
       145        O      tau( 145) = (  0.0833278  0.1666722  0.7933135  )
       146        O      tau( 146) = (  0.0833507  0.4167014  0.1269032  )
       147        O      tau( 147) = (  0.0836349  0.4172699  0.4597067  )
       148        O      tau( 148) = (  0.0833278  0.4166556  0.7933135  )
       149        O      tau( 149) = (  0.0832143  0.6666207  0.1270091  )
       150        O      tau( 150) = (  0.0836613  0.6674316  0.4594612  )
       151        O      tau( 151) = (  0.0828422  0.6665304  0.7939119  )
       152        O      tau( 152) = (  0.0832143  0.9165936  0.1270091  )
       153        O      tau( 153) = (  0.0836613  0.9162298  0.4594612  )
       154        O      tau( 154) = (  0.0828422  0.9163118  0.7939119  )
       155        O      tau( 155) = (  0.3334064  0.1667858  0.1270091  )
       156        O      tau( 156) = (  0.3337703  0.1663387  0.4594612  )
       157        O      tau( 157) = (  0.3336882  0.1671578  0.7939119  )
       158        O      tau( 158) = (  0.3333380  0.4166690  0.1272493  )
       159        O      tau( 159) = (  0.3342804  0.4171402  0.4599485  )
       160        O      tau( 160) = (  0.3337073  0.4168536  0.7942486  )
       161        O      tau( 161) = (  0.3334064  0.6666207  0.1270091  )
       162        O      tau( 162) = (  0.3337703  0.6674316  0.4594612  )
       163        O      tau( 163) = (  0.3336882  0.6665304  0.7939119  )
       164        O      tau( 164) = (  0.3333333  0.9166667  0.1268061  )
       165        O      tau( 165) = (  0.3333333  0.9166667  0.4595298  )
       166        O      tau( 166) = (  0.3333333  0.9166667  0.7934882  )
       167        O      tau( 167) = (  0.5833793  0.1667858  0.1270091  )
       168        O      tau( 168) = (  0.5825684  0.1663387  0.4594612  )
       169        O      tau( 169) = (  0.5834696  0.1671578  0.7939119  )
       170        O      tau( 170) = (  0.5834942  0.4169884  0.1295532  )
       171        O      tau( 171) = (  0.5857806  0.4215612  0.4651775  )
       172        O      tau( 172) = (  0.5844362  0.4188725  0.7900757  )
       173        O      tau( 173) = (  0.5834942  0.6665058  0.1295532  )
       174        O      tau( 174) = (  0.5857806  0.6642194  0.4651775  )
       175        O      tau( 175) = (  0.5844362  0.6655638  0.7900757  )
       176        O      tau( 176) = (  0.5833793  0.9165936  0.1270091  )
       177        O      tau( 177) = (  0.5825684  0.9162298  0.4594612  )
       178        O      tau( 178) = (  0.5834696  0.9163118  0.7939119  )
       179        O      tau( 179) = (  0.8332986  0.1666493  0.1269032  )
       180        O      tau( 180) = (  0.8327301  0.1663651  0.4597067  )
       181        O      tau( 181) = (  0.8333444  0.1666722  0.7933135  )
       182        O      tau( 182) = (  0.8333310  0.4166690  0.1272493  )
       183        O      tau( 183) = (  0.8328598  0.4171402  0.4599485  )
       184        O      tau( 184) = (  0.8331464  0.4168536  0.7942486  )
       185        O      tau( 185) = (  0.8330116  0.6665058  0.1295532  )
       186        O      tau( 186) = (  0.8284388  0.6642194  0.4651775  )
       187        O      tau( 187) = (  0.8311275  0.6655638  0.7900757  )
       188        O      tau( 188) = (  0.8333310  0.9166620  0.1272493  )
       189        O      tau( 189) = (  0.8328598  0.9157196  0.4599485  )
       190        O      tau( 190) = (  0.8331464  0.9162928  0.7942486  )
       191        Mo     tau( 191) = (  0.6666667  0.5833333  0.4972496  )

     number of k points=     1
                       cart. coord. in units 2pi/alat
        k(    1) = (   0.0000000   0.0000000   0.0000000), wk =   1.0000000

                       cryst. coord.
        k(    1) = (   0.0000000   0.0000000   0.0000000), wk =   1.0000000

     Dense  grid:   483727 G-vectors     FFT dimensions: ( 125, 125, 150)

     Dynamical RAM for                 wfc:     161.41 MB

     Dynamical RAM for     wfc (w. buffer):     161.41 MB

     Dynamical RAM for                 EXX:     459.16 MB

     Dynamical RAM for           str. fact:       1.38 MB

     Dynamical RAM for           local pot:       0.00 MB

     Dynamical RAM for          nlocal pot:     143.43 MB

     Dynamical RAM for                qrad:       3.73 MB

     Dynamical RAM for          rho,v,vnew:       9.92 MB

     Dynamical RAM for           G-vectors:       1.96 MB

     Dynamical RAM for          h,s,v(r/c):     717.77 MB

     Dynamical RAM for          <psi|beta>:      53.15 MB

     Dynamical RAM for                 psi:     322.83 MB

     Dynamical RAM for                hpsi:     322.83 MB

     Dynamical RAM for      wfcinit/wfcrot:     502.29 MB

     Estimated static dynamical RAM per process >     789.99 MB

     Estimated max dynamical RAM per process >       2.15 GB

     Estimated total dynamical RAM >     551.64 GB
     EXX: initializing ACE and reading from file
     ACE potential read for     1400 bands
     ACE potential read for     1400 bands
     Starting ACE correctly read from file
     Generating pointlists ...
     new r_m :   0.0612 (alat units)  1.5028 (a.u.) for type    1
     new r_m :   0.0599 (alat units)  1.4718 (a.u.) for type    2
     new r_m :   0.0599 (alat units)  1.4718 (a.u.) for type    3

     The potential is recalculated from file :
     ./pwscf.save/charge-density

     Starting wfcs are 1340 randomized atomic wfcs + 1460 random wfcs

     Band Structure Calculation
     Davidson diagonalization with overlap

     Computing kpt #:     1  of     2
     total cpu time spent up to now is     1545.4 secs

     Computing kpt #:     2  of     2
     total cpu time spent up to now is     3061.5 secs

     ethr =  1.00E-13,  avg # of iterations = 37.5

     total cpu time spent up to now is     3062.7 secs

     End of band structure calculation

 ------ SPIN UP ------------


          k = 0.0000 0.0000 0.0000 ( 60472 PWs)   bands (ev):

  -121.5497-121.5496-121.5495-121.3798-121.3796-121.3796-121.3456-121.3456
  -121.3455-121.3455-121.3455-121.3454-120.9940-120.9342-120.9337-120.9335
  -120.9313-120.9311-120.9310-120.9037-120.9032-120.9031-120.8979-120.8974
  -120.8973-120.8805-120.8804-120.8803-120.8765-120.8764-120.8763-120.8760
  -120.8760-120.8760-120.8524-120.8523-120.8522-120.8520-120.8519-120.8518
  -120.8456-120.8203-120.8203-120.8202-120.8199-120.8199-120.8198-120.8041
  -120.7974-120.7972-120.7972-120.7907-120.7867-120.7866-120.7866-120.7862
  -120.7862-120.7862-120.7828-120.7826-120.7826-120.7713-120.7711-120.7711
  -120.7196-120.7194-120.7194-120.7183-120.7178-120.7177-120.7135-120.7133
  -120.7133-120.7123-120.7120-120.7118-120.7116-120.7115-120.7114-120.7071
  -120.7069-120.7068-120.7053-120.7051-120.7051-120.6890-120.6889-120.6888
  -120.6885-120.6885-120.6884-120.6658-120.6656-120.6655-120.6618 -73.9733
   -73.9723 -73.9723 -73.8958 -73.8956 -73.8956 -73.8935 -73.8934 -73.8929
   -73.8175 -73.8174 -73.8173 -73.7791 -73.7791 -73.7789 -73.7785 -73.7783
   -73.7782 -73.7494 -73.7488 -73.7486 -73.7395 -73.7395 -73.7394 -73.7160
   -73.7158 -73.7156 -73.7152 -73.7151 -73.7149 -73.7102 -73.7102 -73.7101
   -73.7100 -73.7100 -73.7099 -73.4029 -73.3751 -73.3749 -73.3322 -73.3321
   -73.3317 -73.3299 -73.3293 -73.3291 -73.3243 -73.3241 -73.3239 -73.3208
   -73.3206 -73.3204 -73.3191 -73.3191 -73.3190 -73.3188 -73.3187 -73.3186
   -73.3038 -73.3034 -73.3033 -73.2957 -73.2955 -73.2955 -73.2954 -73.2951
   -73.2951 -73.2901 -73.2899 -73.2899 -73.2886 -73.2884 -73.2884 -73.2840
   -73.2837 -73.2836 -73.2766 -73.2765 -73.2763 -73.2745 -73.2744 -73.2742
   -73.2741 -73.2740 -73.2739 -73.2737 -73.2731 -73.2730 -73.2704 -73.2699
   -73.2698 -73.2650 -73.2645 -73.2645 -73.2643 -73.2642 -73.2638 -73.2621
   -73.2619 -73.2619 -73.2617 -73.2616 -73.2615 -73.2518 -73.2517 -73.2517
   -73.2515 -73.2514 -73.2513 -73.2446 -73.2444 -73.2442 -73.2440 -73.2439
   -73.2437 -73.2396 -73.2392 -73.2391 -73.2388 -73.2388 -73.2387 -73.2387
   -73.2383 -73.2343 -73.2222 -73.2221 -73.2221 -73.2219 -73.2218 -73.2218
   -73.2099 -73.2097 -73.2097 -73.2093 -73.2092 -73.2090 -73.2058 -73.2056
   -73.2055 -73.2050 -73.2050 -73.2048 -73.1956 -73.1954 -73.1953 -73.1898
   -73.1894 -73.1893 -73.1888 -73.1887 -73.1885 -73.1881 -73.1879 -73.1878
   -73.1855 -73.1818 -73.1816 -73.1815 -73.1813 -73.1812 -73.1808 -73.1808
   -73.1806 -73.1790 -73.1789 -73.1788 -73.1773 -73.1772 -73.1771 -73.1769
   -73.1769 -73.1767 -73.1744 -73.1743 -73.1742 -73.1741 -73.1741 -73.1738
   -73.1737 -73.1736 -73.1735 -73.1735 -73.1730 -73.1727 -73.1679 -73.1678
   -73.1678 -73.1611 -73.1604 -73.1602 -73.1593 -73.1591 -73.1590 -73.1168
   -73.1167 -73.1166 -73.1157 -73.1154 -73.1152 -73.1113 -73.1111 -73.1111
   -73.1110 -73.1107 -73.1105 -73.1091 -73.1090 -73.1087 -73.1086 -73.1086
   -73.1082 -73.1079 -73.1078 -73.1077 -73.1075 -73.1072 -73.1070 -73.1061
   -73.1058 -73.1056 -73.1043 -73.1042 -73.1040 -73.1036 -73.1032 -73.1031
   -73.1027 -73.1027 -73.1027 -73.1026 -73.1026 -73.1022 -73.1021 -73.1019
   -73.1017 -73.1006 -73.1005 -73.1005 -73.1003 -73.1002 -73.1000 -73.0999
   -73.0997 -73.0996 -73.0991 -73.0990 -73.0988 -73.0983 -73.0973 -73.0973
   -73.0961 -73.0958 -73.0957 -73.0953 -73.0952 -73.0951 -73.0850 -73.0850
   -73.0849 -73.0847 -73.0846 -73.0846 -73.0796 -73.0795 -73.0795 -73.0793
   -73.0793 -73.0791 -73.0786 -73.0780 -73.0779 -73.0777 -73.0777 -73.0772
   -73.0619 -73.0617 -73.0616 -73.0582 -73.0567 -73.0563 -73.0562 -73.0558
   -73.0556 -73.0555 -73.0522 -73.0520 -56.5814 -29.5663 -29.5663 -29.2765
   -11.9233 -11.5914 -11.5914 -11.1271 -11.0024 -10.9171 -10.9168 -10.9150
   -10.8562 -10.8561 -10.8416 -10.8171 -10.7675 -10.7674 -10.7074 -10.6877
   -10.6876 -10.6710 -10.6707 -10.6440 -10.6400 -10.6398 -10.6251 -10.6212
   -10.5991 -10.5911 -10.5772 -10.5660 -10.5553 -10.5550 -10.5239 -10.5237
   -10.5039 -10.5030 -10.5029 -10.4766 -10.4500 -10.4499 -10.4466 -10.4465
   -10.4251 -10.4250 -10.4202 -10.4040 -10.3865 -10.3739 -10.3738 -10.3611
   -10.3582 -10.3581 -10.3502 -10.3398 -10.3397 -10.3293 -10.3233 -10.3230
   -10.3206 -10.3204 -10.3140 -10.3062 -10.3033 -10.3032 -10.2948 -10.2871
   -10.2871 -10.2767 -10.2436 -10.2435 -10.2383 -10.2382 -10.2357 -10.2249
   -10.2247 -10.2222 -10.2143 -10.2093 -10.2091 -10.2043 -10.1854 -10.1852
   -10.1842 -10.1841 -10.1706 -10.1688 -10.1680 -10.1678 -10.1254 -10.1176
   -10.1175 -10.1058 -10.0894 -10.0892 -10.0844 -10.0843 -10.0826   1.3122
     1.3123   1.3794   1.3911   1.3911   1.4214   1.4406   1.4406   1.4534
     1.4725   1.4725   1.4843   1.4843   1.4993   1.5384   1.5384   1.5592
     1.5620   1.5621   1.5673   1.5788   1.5855   1.5855   1.6009   1.6009
     1.6088   1.6249   1.6316   1.6404   1.6405   1.6507   1.6507   1.6840
     1.6923   1.6934   1.6934   1.7045   1.7045   1.7116   1.7326   1.7390
     1.7391   1.7449   1.7450   1.7512   1.7566   1.7624   1.7625   1.7653
     1.7769   1.7793   1.7793   1.7817   1.7824   1.7824   1.7980   1.7981
     1.8049   1.8092   1.8092   1.8179   1.8185   1.8185   1.8220   1.8265
     1.8265   1.8315   1.8380   1.8380   1.8467   1.8521   1.8557   1.8591
     1.8591   1.8606   1.8707   1.8707   1.8711   1.8711   1.8855   1.8855
     1.8900   1.8923   1.8923   1.9115   1.9115   1.9175   1.9175   1.9199
     1.9280   1.9280   1.9386   1.9419   1.9419   1.9473   1.9532   1.9532
     1.9605   1.9605   1.9612   1.9636   1.9639   1.9793   1.9793   1.9822
     1.9822   1.9824   1.9853   1.9856   1.9856   1.9958   1.9958   1.9959
     2.0041   2.0126   2.0126   2.0173   2.0207   2.0208   2.0252   2.0335
     2.0335   2.0422   2.0423   2.0423   2.0424   2.0563   2.0563   2.0589
     2.0596   2.0649   2.0649   2.0812   2.0812   2.0835   2.0835   2.0907
     2.0907   2.0931   2.0937   2.0959   2.1045   2.1045   2.1156   2.1156
     2.1191   2.1207   2.1257   2.1257   2.1294   2.1294   2.1299   2.1343
     2.1348   2.1348   2.1388   2.1460   2.1461   2.1596   2.1736   2.1763
     2.1763   2.1812   2.1812   2.1897   2.1902   2.1902   2.1989   2.1996
     2.1997   2.2072   2.2072   2.2144   2.2159   2.2221   2.2247   2.2247
     2.2264   2.2265   2.2267   2.2301   2.2301   2.2339   2.2360   2.2360
     2.2390   2.2411   2.2411   2.2470   2.2534   2.2534   2.2551   2.2551
     2.2563   2.2563   2.2581   2.2702   2.2703   2.2721   2.2800   2.2900
     2.2900   2.2982   2.3029   2.3039   2.3040   2.3046   2.3141   2.3141
     2.3281   2.3281   2.3282   2.3312   2.3312   2.3355   2.3389   2.3443
     2.3444   2.3505   2.3505   2.3538   2.3538   2.3626   2.3627   2.3717
     2.3717   2.3841   2.3898   2.3898   2.4100   2.4100   2.4105   2.4110
     2.4369   2.4390   2.4391   2.4401   2.4404   2.4415   2.4415   2.4562
     2.4563   2.4785   2.4786   2.4857   2.4857   2.4858   2.4966   2.5013
     2.5013   2.5048   2.5048   2.5067   2.5095   2.5108   2.5108   2.5125
     2.5277   2.5277   2.5333   2.5333   2.5457   2.5559   2.5589   2.5589
     2.5696   2.5817   2.5832   2.5832   2.5873   2.5962   2.5962   2.6026
     2.6060   2.6060   2.6072   2.6072   2.6105   2.6177   2.6370   2.6370
     2.6515   2.6534   2.6534   2.6643   2.6682   2.6682   2.6746   2.6774
     2.6774   2.6866   2.6882   2.6882   2.6924   2.7054   2.7054   2.7058
     2.7166   2.7174   2.7175   2.7295   2.7295   2.7583   2.7661   2.7822
     2.7822   2.7887   2.7887   2.7922   2.8046   2.8093   2.8094   2.8173
     2.8279   2.8279   2.8376   2.8397   2.8397   2.8465   2.8465   2.8575
     2.8645   2.8645   2.8742   2.8742   2.8765   2.8892   2.8944   2.8944
     2.9035   2.9068   2.9074   2.9074   2.9080   2.9120   2.9121   2.9220
     2.9221   2.9340   2.9340   2.9425   2.9468   2.9468   2.9502   2.9540
     2.9561   2.9561   2.9590   2.9590   2.9602   2.9637   2.9661   2.9661
     2.9730   2.9746   2.9749   2.9749   2.9753   2.9754   2.9796   2.9880
     2.9887   2.9888   2.9999   3.0124   3.0124   3.0165   3.0166   3.0175
     3.0175   3.0322   3.0322   3.0324   3.0371   3.0371   3.0422   3.0432
     3.0445   3.0446   3.0561   3.0561   3.0614   3.0614   3.0656   3.0664
     3.0664   3.0674   3.0716   3.0716   3.0768   3.0791   3.0791   3.0818
     3.0889   3.0889   3.0932   3.0944   3.0959   3.0959   3.1019   3.1019
     3.1053   3.1053   3.1054   3.1172   3.1235   3.1236   3.1325   3.1346
     3.1346   3.1395   3.1395   3.1399   3.1492   3.1505   3.1506   3.1547
     3.1547   3.1564   3.1580   3.1580   3.1589   3.1651   3.1665   3.1673
     3.1673   3.1755   3.1756   3.1765   3.1828   3.1828   3.1847   3.1853
     3.1853   3.1892   3.1892   3.1949   3.2052   3.2053   3.2183   3.2184
     3.2199   3.2330   3.2362   3.2362   3.2403   3.2443   3.2443   3.2559
     3.2615   3.2615   3.2811   3.2979   3.3110   3.3110   3.3167   3.3167
     3.3211   3.3255   3.3255   3.3333   3.3399   3.3574   3.3575   3.3731
     3.3731   3.4063   3.4063   3.4335   3.4335   3.4406   3.4637   3.4691
     3.4691   3.4705   3.5070   3.5101   3.5101   3.5232   3.5232   3.6677
     3.7943   3.8636   3.8636   3.9175   3.9249   3.9250   3.9451   3.9451
     3.9614   3.9629   4.0300   4.0932   4.0933   4.1086   4.1086   4.1314
     4.1660   4.1688   4.1688   4.2814   4.3101   4.3101   4.3268   4.3290
     4.3291   4.3444   4.3445   4.3511   4.3954   4.3955   4.3976   4.4044
     4.4385   4.4385   4.4673   4.4673   4.5028   4.5955   4.5955   4.6217
     4.6609   4.6804   4.6804   4.6962   4.7280   4.7312   4.7471   4.7471
     4.7801   4.7802   4.8338   4.8339   4.8476   4.8476   4.8590   4.8649
     4.8776   4.8776   4.9154   4.9154   4.9313   5.0024   5.0025   5.0162
     5.0305   5.0311   5.0311   5.0559   5.0635   5.0708   5.0708   5.1593
     5.1594   5.2379   5.3302   5.3718   5.3732   5.3733   5.4395   5.4396
     5.5105   5.5106   5.5141   5.5272   5.5549   5.5549   5.5563   5.5719
     5.5719   5.6283   5.6284   5.6326   5.6568   5.6568   5.6684   5.6766
     5.6888   5.6970   5.6971   5.6985   5.7548   5.7548   5.7979   5.8117
     5.8117   5.8436   5.8436   5.8552   5.8825   5.8825   5.9024   5.9201
     5.9201   5.9358   5.9688   5.9822   5.9823   6.0208   6.0208   6.1680
     6.1680   6.1859   6.2938   6.2939   6.3131   6.3645   6.3715   6.3716
     6.3891   6.3891   6.4001   6.4212   6.4237   6.4237   6.4431   6.4466
     6.4467   6.4568   6.4586   6.4676   6.4677   6.4771   6.4862   6.4866
     6.4866   6.4979   6.4980   6.5085   6.5221   6.5222   6.5685   6.5739
     6.5739   6.5923   6.5997   6.5997   6.6220   6.6221   6.6358   6.6465
     6.6481   6.6481   6.6618   6.6619   6.6849   6.7130   6.7147   6.7147
     6.7342   6.7405   6.7405   6.7690   6.8003   6.8005   6.8379   6.8380
     6.8438   6.8934   6.8935   6.9181   6.9855   7.0209   7.0340   7.0340
     7.0649   7.0651   7.0849   7.0932   7.0962   7.0963   7.1258   7.1274
     7.1275   7.1368   7.1544   7.1544   7.1569   7.1733   7.1734   7.1816
     7.1829   7.1913   7.1915   7.2032   7.2155   7.2156   7.2230   7.2318
     7.2398   7.2398   7.2513   7.2588   7.2589   7.2962   7.2963   7.3603
     7.3714   7.3714   7.3845   7.3992   7.3992   7.3995   7.4044   7.4162
     7.4162   7.4275   7.4275   7.4492   7.4493   7.4868   7.5068   7.5069
     7.5730   7.5900   7.5918   7.5918   7.6183   7.6183   7.6581   7.6582
     7.6714   7.6715   7.6726   7.6726   7.6981   7.7012   7.7050   7.7335
     7.7337   7.7496   7.7498   7.7574   7.7762   7.8028   7.8030   7.8111
     7.8266   7.8634   7.8635   7.8820   7.8820   7.9299   7.9300   8.0018
     8.0019   8.0313   8.0427   8.0429   8.0833   8.0998   8.1000   8.1090
     8.2220   8.2221   8.3092   8.3092   8.3904   8.5427   8.5427   8.6291
     9.0346   9.0346  11.6860  12.7454  13.2446  13.4749  13.4750  13.4826
    13.9761  13.9761  14.1968  14.1969  14.2382  14.3517  14.7628  14.8123
    14.8124  14.9324  14.9325  14.9879  14.9880  15.0025  15.0026  15.0164
    15.0282  15.2960  15.3521  15.7470  16.0753  16.0754  16.3412  16.4112
    16.4374  16.4374  16.5580  16.5581  16.5845  16.6273  16.8310  16.8310
    16.8495  16.8496  16.9059  16.9060  16.9123  16.9209  16.9210  16.9268
    16.9513  16.9730  16.9949  16.9949  17.0448  17.0786  17.0787  17.1651
    17.1652  17.1788  17.2348  17.2348  17.2374  17.2383  17.2646  17.2647
    17.2731  17.2791  17.3091  17.3092  17.3233  17.3305  17.3305  17.3496
    17.3496  17.7965  17.7965  17.8726  17.9286  18.0000  18.0000  18.0628
    18.0711  18.0912  18.0912  18.1809  18.1809  18.2061  18.2267  18.2267
    18.2765  18.2765  18.3165  18.3700  18.3701  18.4137  18.4465  18.5588
    18.5588  18.7094  18.7094  18.7548  18.8127  18.8128  18.8135  18.9730
    19.0188  19.0188  19.3313  19.3314  19.3503  19.3527  19.3527  19.3738
    19.4461  19.4809  19.4810  19.5218  19.5219  19.5513  19.5829  19.6582
    19.6714  19.6715  19.8045  19.8045  19.8182  19.8182  19.8182  19.8883
    19.8884  19.8927  19.9071  19.9373  19.9454  19.9454  19.9578  19.9578
    19.9657  19.9789  19.9908  19.9908  20.0273  20.0313  20.0313  20.0573
    20.0573  20.0849  20.1205  20.1415  20.1429  20.1603  20.1608  20.2088
    20.2291  20.2358  20.2402  20.2403  20.2516  20.2642  20.2660  20.2902
    21.6275  21.6537  21.6698  21.7077  21.7180  21.7313  21.7319  21.7409
    21.7454  21.7831  21.7971  21.8763  21.9155  21.9252  21.9820  22.0127
    22.0382  22.0420  22.1739  22.1828  22.2328  22.2920  22.2966  22.3006
    22.3380  22.3482  22.3485  22.3538  22.3627  22.3664  22.3722  22.3769
    22.4078  22.4395  22.4494  22.4576  22.4913  22.5025  22.5145  22.5174
    22.5382  22.5958  22.6594  22.6691  22.8715  22.8741  22.8779  23.0096
    23.0524  23.1081  23.1254  23.1350  23.1399  23.1420  23.1551  23.1555
    23.1624  23.1627  23.2000  23.2001  23.2063  23.2069  23.2735  23.4884
    23.4896  23.6116  23.6621  23.7055  23.7056  23.7099  23.7287  23.7381
    23.7383  23.8850  23.9065  23.9065  23.9673  23.9687  24.0135  24.0135
    24.0149  24.0175  24.0555  24.0555  24.0589  24.0795  24.0796  24.0804
    24.0806  24.0812  24.0835  24.1164  24.1166  24.1311  24.1691  24.1692
    24.1936  24.3219  24.3559  24.3559  24.3688  24.4540  24.4541  24.5015
    24.5424  24.5424  24.6170  24.6374  24.6375  24.6923  24.7178  24.7363
    24.7364  24.7578  24.7710  24.7710  24.7909  24.7913  24.7916  24.8012
    24.8013  24.8523  24.8529  24.9437  25.0503  25.2754  25.2769  25.3104
    25.3651  25.3653  25.3980  25.4257  25.4260  25.4369  25.4369  25.4741
    25.4860  25.4912  25.4922  25.4924  25.5160  25.5160  25.5356  25.5356
    25.5906  25.5906  25.6513  25.6514  25.6678  25.7212  25.7393  25.7404
    25.8907  25.8908  25.9302  25.9948  26.0006  26.0006  26.0669  26.1186
    26.1186  26.1200  26.1302  26.1302  26.1679  26.1729  26.1729  26.1759
    26.1980  26.1980  26.2007  26.2284  26.2284  26.2294  26.2390  26.2412
    26.2413  26.2656  26.2657  26.3786  26.3787  26.4276  26.4278  26.4945
    26.5302  26.5598  26.5599  26.5733  26.5838  26.5838  26.5959  26.6959
    26.6959  26.7383  26.7385  26.7974  26.8178  26.8625  26.8627  26.8684
    26.8759  26.8761  26.9281  26.9705  26.9705  27.0283  27.0381  27.0382
    27.0445  27.0631  27.0631  27.0953  27.1053  27.1054  27.2142  27.2143
    27.2307  27.2310  27.2336  27.3464  27.4356  27.4363  27.4585  27.8932
    27.9355  27.9356  27.9536  27.9537  27.9924  28.0128  28.0147  28.0228
    28.0229  28.0340  28.0518  28.0526  28.0545  28.0733  28.0909  28.1038
    28.1045  28.1186  28.1192  28.1458  28.1841  28.1842  28.2482  28.2491
    28.2491  28.2875  28.3165  28.3165  28.3277  28.3439  28.3454  28.3624
    28.3653  28.3661  28.3671  28.3894  28.3897  28.3951  28.4003  28.4013
    28.4194  28.4396  28.4530  28.4531  28.5300  28.5300  28.6094  28.8287
    29.0198  29.0210  29.2373  29.4063  29.5087  29.8514  29.9534  29.9534
    30.0019  30.0880  30.0880  30.0955  30.1176  30.1176  30.1263  30.1357
    30.1523  30.1523  30.1761  30.1884  30.1884  30.2338  30.2339  30.2552
    30.2580  30.2580  30.2751  30.2760  30.2765  30.3777  30.3778  30.4019
    30.4097  30.4815  30.4815  30.4999  30.5001  30.5248  30.5265  30.5266
    30.5327  30.5527  30.5533  30.5877  30.5878  30.6317  30.7901  30.8561
    30.8562  30.9074  31.0142  31.2237  31.2239  31.2622  31.2767  31.2767
    31.3378  31.3378  31.4619  31.5704  31.5928  31.5928  31.6075  31.6676
    31.6703  31.6704  31.6718  31.6718  31.6906  31.7092  31.7093  31.7194
    31.7245  31.7245  31.7444  31.7444  31.7646  31.8212  31.8212  31.8763
    31.9857  31.9858  32.1323  32.1327  32.3625  32.4239  32.4434  32.4434
    32.5019  32.5019  32.5082  32.6207  32.6598  32.6598  32.7951  32.7965
    32.8950  32.8950  32.9938  32.9981  33.0351  33.0792  33.1144  33.1145
    33.1631  33.1800  33.1868  33.1966  33.1969  33.1971  33.2255  33.2473
    33.2474  33.3486  33.3492  33.3521  33.4222  33.4225  33.4510  33.6246
    33.6398  33.6400  33.6661  33.6663  33.7369  33.8855  33.8857  33.9327
    34.0409  34.1791  34.1877  34.1909  34.2103  34.2109  34.2383  34.2483
    34.2485  34.2537  34.2541  34.3002  34.3238  34.3414  34.3647  34.3662
    34.3690  34.3906  34.3907  34.4452  34.4452  34.5186  34.5193  34.5546
    34.5991  34.5993  34.6031  34.6141  34.6380  34.6380  34.6380  34.6496
    34.6696  34.6696  34.6849  34.6849  34.7432  34.7460  34.7460  34.7667
    34.7668  34.7877  34.8269  34.8270  34.8345  34.8954  34.9348  34.9350
    35.0014  35.0185  35.0193  35.0196  35.0251  35.0263  35.0263  35.0433
    35.0911  35.0914  35.0914  35.0977  35.1068  35.1068  35.1589  35.1592
    35.1711  35.2350  35.2350  35.3040  35.3040  35.3173  35.4016  35.4803
    35.4804  35.5168  35.5170  35.5709  35.6046  35.6335  35.6337  35.6727
    35.7178  35.7179  35.7372  35.7483  35.7489  35.7494  35.7540  35.7697
    35.7699  35.8081  35.8082  35.8173  35.8295  35.9734  36.1949  36.1956
    36.2627  36.3162  36.3678  36.3828  36.3863  36.4653  36.4659  36.4678
    36.4832  36.4977  36.4977  36.5170  36.5200  36.5340  36.5588  36.5616
    36.5680  36.5680  36.5692  36.5992  36.6047  36.6054  36.6183  36.6193
    36.6357  36.6428  36.6430  36.6635  36.6642  36.6829  36.6829  36.6897
    36.6962  36.7134  36.7153  36.7352  36.7353  36.7391  36.7763  36.7775
    36.7980  36.8201  36.8220  36.8575  36.8940  36.8954  37.0130  37.0904
    37.0908  37.0948  37.0954  37.1341  37.1349  37.1361  37.1438  37.1544
    37.1660  37.1689  37.1690  37.1931  37.2044  37.2046  37.2251  37.2258
    37.2365  37.2397  37.2541  37.2562  37.2610  37.2615  37.2770  37.2772
    37.2870  37.3527  37.3549  37.3550  37.4759  37.5023  37.5023  37.5694
    37.5694  37.5946  37.5948  37.6046  37.6276  37.6283  37.6340  37.6805
    37.6855  37.6871  37.7503  37.7504  37.7592  37.7786  37.7786  37.8359
    37.8784  37.8789  37.9065  37.9351  37.9352  37.9596  37.9607  37.9794
    37.9798  37.9918  37.9918  38.0572  38.0573  38.1431  38.1441  38.1441
    38.1629  38.1630  38.2019  38.2397  38.2595  38.3008  38.3008  38.3248
    38.3248  38.3354  38.3491  38.3547  38.4699  38.4701  38.5139  38.5468
    38.5468  38.6837  38.6920  38.6921  38.7536  38.7541  38.7876  38.7953
    38.7988  38.7989  38.8491  38.8683  38.8684  38.9084  38.9085  38.9329
    39.0384  39.0385  39.0998  39.1004  39.1116  39.1527  39.1527  39.1585
    39.1722  39.1907  39.1909  39.2472  39.2473  39.2898  39.2898  39.3502
    39.3530  39.3758  39.3758  39.4168  39.4396  39.4396  39.4683  39.4683
    39.4964  39.5048  39.5048  39.5206  39.5349  39.5349  39.5888  39.5922
    39.6390  39.7043  39.7044  39.8308  39.8393  39.8444  39.8445  39.8912
    39.9083  39.9084  39.9584  39.9719  39.9719  39.9890  39.9890  39.9957
    40.0001  40.0001  40.0007  40.0285  40.0538  40.0602  40.0603  40.0686
    40.0686  40.1197  40.1197  40.1358  40.1359  40.1411  40.1540  40.1851
    40.1935  40.2326  40.2326  40.2376  40.3107  40.3107  40.3991  40.4162
    40.4166  40.4365  40.4481  40.4483  40.4565  40.4571  40.4699  40.4844
    40.4850  40.4941  40.5045  40.5163  40.5179  40.5191  40.5322  40.5322
    40.5614  40.5619  40.5798  40.5859  40.6049  40.6107  40.6108  40.6272
    40.6278  40.7127  40.7130  40.7374  40.7375  40.7448  40.8523  40.8524
    40.8816  40.9151  40.9451  40.9452  40.9748  40.9881  40.9881  41.0189
    41.0258  41.0258  41.0440  41.0566  41.0567  41.0782  41.0782  41.0921
    41.1010  41.1331  41.1333  41.1946  41.1948  41.2383  41.3091  41.3441
    41.3443  41.3729  41.3896  41.3897  41.4219  41.4311  41.4314  41.4788
    41.5123  41.5124  41.5261  41.5262  41.5327  41.5610  41.5611  41.5616
    41.5784  41.5889  41.5889  41.5909  41.6261  41.6261  41.6277  41.7565
    41.8195  41.8196  41.8552  41.8553  41.8839  41.8948  41.9603  41.9606
    42.0301  42.0302  42.0432  42.0906  42.0906  42.1699  42.1795  42.1904
    42.1904  42.2339  42.2470  42.2577  42.2579  42.2692  42.2798  42.2799
    42.3033  42.3100  42.3101  42.3205  42.3206  42.3248  42.3517  42.3944
    42.3948  42.4865  42.5267  42.5287  42.5303  42.6773  42.7113  42.7114
    42.7651  42.7653  42.7851  42.8080  42.8081  42.8873  42.8873  42.8899
    42.9481  42.9482  43.0228  43.0502  43.0502  43.0919  43.1124  43.1125
    43.1634  43.1635  43.1785  43.2056  43.2131  43.2134  43.2143  43.2272
    43.2335  43.2335  43.2388  43.2759  43.2760  43.2991  43.2992  43.3140
    43.3293  43.3309  43.3492  43.3714  43.3722  43.5315  43.5325  43.5325
    43.5626  43.7371  43.7371  43.7434  43.7615  43.7912  43.7913  43.8412
    43.8834  43.8940  43.8941  43.9117  43.9160  43.9160  43.9238  43.9274
    43.9606  43.9607  43.9715  43.9956  43.9956  44.0268  44.0268  44.0813
    44.0815  44.0935  44.1066  44.1218  44.1219  44.1548  44.1846  44.1847
    44.1924  44.2068  44.2071  44.2111  44.2152  44.2162  44.2490  44.2492
    44.3141  44.3142  44.3368  44.3370  44.4057  44.4933  44.5256  44.5256
    44.5820  44.6465  44.6465  44.6599  44.6828  44.6828  44.7507  44.7523
    44.7678  44.7678  44.8013  44.8013  44.8163  44.8163  44.8477  44.8631
    44.8631  44.9340  44.9538  44.9538  44.9611  44.9611  44.9669  44.9852
    44.9879  44.9880  45.0000  45.0041  45.0302  45.0303  45.0690  45.0690
    45.0758  45.0759  45.1503  45.1504  45.1599  45.1988  45.2332  45.2333
    45.2732  45.2744  45.2745  45.3012  45.3012  45.3166  45.3357  45.3357
    45.3931  45.3936  45.4043  45.4186  45.4202  45.4207  45.4289  45.4302
    45.4393  45.4395  45.4574  45.4589  45.4711  45.4910  45.4911  45.5242
    45.5830  45.5831  45.6631  45.6892  45.6892  45.7039  45.7536  45.7536
    45.8376  45.8386  45.8842  45.8881  45.8997  45.9004  45.9230  45.9357
    45.9516  45.9612  45.9677  45.9786  45.9789  45.9860  45.9898  45.9977
    45.9997  46.0442  46.0851  46.0855  46.0887  46.1336  46.1561  46.1569
    46.3179  46.3182  46.3247  46.4097  46.4213  46.4213  46.4507  46.4584
    46.4585  46.4660  46.4675  46.4675  46.5040  46.5040  46.5188  46.5247
    46.5372  46.5493  46.5494  46.5721  46.6029  46.6029  46.6698  46.6698
    46.7105  46.8157  46.8374  46.8374  46.8905  46.8905  47.0419  47.0423
    47.0557  47.0815  47.0815  47.1501  47.1613  47.2095  47.2651  47.3104
    47.3105  47.3224  47.3230  47.3730  47.3730  47.3752  47.4148  47.4153
    47.4153  47.4747  47.4748  47.5504  47.8180  47.8319  47.8319  47.8747
    47.8747  47.9394  47.9758  47.9979  47.9981  48.0841  48.0841  48.0892
    48.1365  48.1722  48.1886  48.1888  48.2079  48.2093  48.2174  48.2255
    48.2312  48.2352  48.2717  48.2823  48.2824  48.3202  48.3202  48.3313
    48.3363  48.3363  48.3553  48.3574  48.3712  48.3901  48.3906  48.4828
    48.4841  48.4879  48.5512  48.6422  48.6432  48.6493  48.6732  48.6738
    48.6879  48.7534  48.7627  48.7627  48.7786  48.7786  48.7925  48.8067
    48.8190  48.8192  48.8399  48.8626  48.8627  48.8735  48.8736  48.8867
    48.8876  48.9051  48.9246  48.9377  48.9383  48.9578  48.9962  48.9962
    49.0144  49.0173  49.0408  49.0513  49.0521  49.0765  49.1013  49.1043
    49.1086  49.1117  49.1330  49.1394  49.1405  49.1537  49.1710  49.1713
    49.2066  49.2069  49.2443  49.2857  49.2928  49.2929  49.3306  49.3320
    49.4295  49.4295  49.4379  49.4980  49.5437  49.5505  49.5596  49.5600
    49.5747  49.5749  49.5957  49.5958  49.6072  49.6582  49.6585  49.6616
    49.6620  49.6864  49.7191  49.7225  49.7378  49.7381  49.7737  49.8291
    49.8291  49.8785  49.8786  49.9104  49.9104  49.9245  50.0053  50.0263
    50.0264  50.0509  50.0509  50.1131  50.1427  50.1428  50.1622  50.1694
    50.1719  50.1719  50.1792  50.1792  50.1973  50.1980  50.1981  50.2235
    50.2455  50.2464  50.2553  50.2553  50.2643  50.2643  50.2979  50.3137
    50.3137  50.3149  50.3819  50.3820  50.3829  50.4017  50.4017  50.4057
    50.4573  50.4573  50.4784  50.4964  50.4964  50.5419  50.5419  50.5714
    50.6015  50.6015  50.6643  50.6643  50.6784  50.6949  50.6950  50.7076
    50.7275  50.7402  50.7402  50.7496  50.7497  50.7702  50.7958  50.7958
    50.8109  50.8205  50.8508  50.8508  50.8926  50.8986  50.8986  50.9470
    51.0432  51.0580  51.0580  51.1129  51.1136  51.1296  51.1594  51.2296
    51.2436  51.2437  51.2497  51.2497  51.2879  51.2969  51.2973  51.3124
    51.3373  51.3428  51.3685  51.3727  51.3772  51.3985  51.3988  51.4450
    51.4686  51.4698  51.5116  51.5117  51.5168  51.5173  51.5536  51.5699
    51.5851  51.5877  51.5880  51.6192  51.6317  51.6317  51.6371  51.6422
    51.6531  51.6531  51.6633  51.6751  51.6751  51.7053  51.7053  51.7842
    51.8100  51.8230  51.8230  51.8740  51.8741  51.9304  51.9742  52.0970
    52.0970  52.1335  52.1337  52.1644  52.2838  52.2864  52.3169  52.3256
    52.3267  52.3911  52.3914  52.4578  52.4804  52.5619  52.5619  52.5837
    52.6054  52.6056  52.6165  52.6165  52.6181  52.6345  52.6563  52.6563
    52.7639  52.7650  52.7650  52.7766  52.7766  52.7990  52.8150  52.8151
    52.8489  52.8943  52.9079  52.9294  52.9295  52.9658  52.9659  52.9705
    52.9705  53.0260  53.0566  53.3452  53.3453  53.4039  53.4040  53.4483
    53.4769  53.4770  53.5146  53.5289  53.5585  53.5718  53.5719  53.5821
    53.5821  53.6197  53.6400  53.6400  53.6525  53.6529  53.6617  53.6617
    53.6627  53.7035  53.7204  53.7212  53.7783  53.8019  53.8205  53.8488
    53.8488  53.9389  53.9389  53.9426  53.9456  53.9456  54.0688  54.0689
    54.0727  54.0955  54.1176  54.1177  54.1392  54.1545  54.1547  54.1681

     occupation numbers 
     1.0000   1.0000   1.0000   1.0000   1.0000   1.0000   1.0000   1.0000
     1.0000   1.0000   1.0000   1.0000   1.0000   1.0000   1.0000   1.0000
     1.0000   1.0000   1.0000   1.0000   1.0000   1.0000   1.0000   1.0000
     1.0000   1.0000   1.0000   1.0000   1.0000   1.0000   1.0000   1.0000
     1.0000   1.0000   1.0000   1.0000   1.0000   1.0000   1.0000   1.0000
     1.0000   1.0000   1.0000   1.0000   1.0000   1.0000   1.0000   1.0000
     1.0000   1.0000   1.0000   1.0000   1.0000   1.0000   1.0000   1.0000
     1.0000   1.0000   1.0000   1.0000   1.0000   1.0000   1.0000   1.0000
     1.0000   1.0000   1.0000   1.0000   1.0000   1.0000   1.0000   1.0000
     1.0000   1.0000   1.0000   1.0000   1.0000   1.0000   1.0000   1.0000
     1.0000   1.0000   1.0000   1.0000   1.0000   1.0000   1.0000   1.0000
     1.0000   1.0000   1.0000   1.0000   1.0000   1.0000   1.0000   1.0000
     1.0000   1.0000   1.0000   1.0000   1.0000   1.0000   1.0000   1.0000
     1.0000   1.0000   1.0000   1.0000   1.0000   1.0000   1.0000   1.0000
     1.0000   1.0000   1.0000   1.0000   1.0000   1.0000   1.0000   1.0000
     1.0000   1.0000   1.0000   1.0000   1.0000   1.0000   1.0000   1.0000
     1.0000   1.0000   1.0000   1.0000   1.0000   1.0000   1.0000   1.0000
     1.0000   1.0000   1.0000   1.0000   1.0000   1.0000   1.0000   1.0000
     1.0000   1.0000   1.0000   1.0000   1.0000   1.0000   1.0000   1.0000
     1.0000   1.0000   1.0000   1.0000   1.0000   1.0000   1.0000   1.0000
     1.0000   1.0000   1.0000   1.0000   1.0000   1.0000   1.0000   1.0000
     1.0000   1.0000   1.0000   1.0000   1.0000   1.0000   1.0000   1.0000
     1.0000   1.0000   1.0000   1.0000   1.0000   1.0000   1.0000   1.0000
     1.0000   1.0000   1.0000   1.0000   1.0000   1.0000   1.0000   1.0000
     1.0000   1.0000   1.0000   1.0000   1.0000   1.0000   1.0000   1.0000
     1.0000   1.0000   1.0000   1.0000   1.0000   1.0000   1.0000   1.0000
     1.0000   1.0000   1.0000   1.0000   1.0000   1.0000   1.0000   1.0000
     1.0000   1.0000   1.0000   1.0000   1.0000   1.0000   1.0000   1.0000
     1.0000   1.0000   1.0000   1.0000   1.0000   1.0000   1.0000   1.0000
     1.0000   1.0000   1.0000   1.0000   1.0000   1.0000   1.0000   1.0000
     1.0000   1.0000   1.0000   1.0000   1.0000   1.0000   1.0000   1.0000
     1.0000   1.0000   1.0000   1.0000   1.0000   1.0000   1.0000   1.0000
     1.0000   1.0000   1.0000   1.0000   1.0000   1.0000   1.0000   1.0000
     1.0000   1.0000   1.0000   1.0000   1.0000   1.0000   1.0000   1.0000
     1.0000   1.0000   1.0000   1.0000   1.0000   1.0000   1.0000   1.0000
     1.0000   1.0000   1.0000   1.0000   1.0000   1.0000   1.0000   1.0000
     1.0000   1.0000   1.0000   1.0000   1.0000   1.0000   1.0000   1.0000
     1.0000   1.0000   1.0000   1.0000   1.0000   1.0000   1.0000   1.0000
     1.0000   1.0000   1.0000   1.0000   1.0000   1.0000   1.0000   1.0000
     1.0000   1.0000   1.0000   1.0000   1.0000   1.0000   1.0000   1.0000
     1.0000   1.0000   1.0000   1.0000   1.0000   1.0000   1.0000   1.0000
     1.0000   1.0000   1.0000   1.0000   1.0000   1.0000   1.0000   1.0000
     1.0000   1.0000   1.0000   1.0000   1.0000   1.0000   1.0000   1.0000
     1.0000   1.0000   1.0000   1.0000   1.0000   1.0000   1.0000   1.0000
     1.0000   1.0000   1.0000   1.0000   1.0000   1.0000   1.0000   1.0000
     1.0000   1.0000   1.0000   1.0000   1.0000   1.0000   1.0000   1.0000
     1.0000   1.0000   1.0000   1.0000   1.0000   1.0000   1.0000   1.0000
     1.0000   1.0000   1.0000   1.0000   1.0000   1.0000   1.0000   1.0000
     1.0000   1.0000   1.0000   1.0000   1.0000   1.0000   1.0000   1.0000
     1.0000   1.0000   1.0000   1.0000   1.0000   1.0000   1.0000   1.0000
     1.0000   1.0000   1.0000   1.0000   1.0000   1.0000   1.0000   1.0000
     1.0000   1.0000   1.0000   1.0000   1.0000   1.0000   1.0000   1.0000
     1.0000   1.0000   1.0000   1.0000   1.0000   1.0000   1.0000   1.0000
     1.0000   1.0000   1.0000   1.0000   1.0000   1.0000   1.0000   1.0000
     1.0000   1.0000   1.0000   1.0000   1.0000   1.0000   1.0000   1.0000
     1.0000   1.0000   1.0000   1.0000   1.0000   1.0000   1.0000   1.0000
     1.0000   1.0000   1.0000   1.0000   1.0000   1.0000   1.0000   1.0000
     1.0000   1.0000   1.0000   1.0000   1.0000   1.0000   1.0000   1.0000
     1.0000   1.0000   1.0000   1.0000   1.0000   1.0000   1.0000   1.0000
     1.0000   1.0000   1.0000   1.0000   1.0000   1.0000   1.0000   1.0000
     1.0000   1.0000   1.0000   1.0000   1.0000   1.0000   1.0000   1.0000
     1.0000   1.0000   1.0000   1.0000   1.0000   1.0000   1.0000   1.0000
     1.0000   1.0000   1.0000   1.0000   1.0000   1.0000   1.0000   1.0000
     1.0000   1.0000   1.0000   1.0000   1.0000   1.0000   1.0000   1.0000
     1.0000   1.0000   1.0000   1.0000   1.0000   1.0000   1.0000   1.0000
     1.0000   1.0000   1.0000   1.0000   1.0000   1.0000   1.0000   1.0000
     1.0000   1.0000   1.0000   1.0000   1.0000   1.0000   1.0000   1.0000
     1.0000   1.0000   1.0000   1.0000   1.0000   1.0000   1.0000   1.0000
     1.0000   1.0000   1.0000   1.0000   1.0000   1.0000   1.0000   1.0000
     1.0000   1.0000   1.0000   1.0000   1.0000   1.0000   1.0000   1.0000
     1.0000   1.0000   1.0000   1.0000   1.0000   1.0000   1.0000   1.0000
     1.0000   1.0000   1.0000   1.0000   1.0000   1.0000   1.0000   1.0000
     1.0000   1.0000   1.0000   1.0000   1.0000   1.0000   1.0000   1.0000
     1.0000   1.0000   1.0000   1.0000   1.0000   1.0000   1.0000   1.0000
     1.0000   1.0000   1.0000   1.0000   1.0000   1.0000   1.0000   1.0000
     1.0000   1.0000   1.0000   1.0000   1.0000   1.0000   1.0000   1.0000
     1.0000   1.0000   1.0000   1.0000   1.0000   1.0000   1.0000   1.0000
     1.0000   1.0000   1.0000   1.0000   1.0000   1.0000   1.0000   1.0000
     1.0000   1.0000   1.0000   1.0000   1.0000   1.0000   1.0000   1.0000
     1.0000   1.0000   1.0000   1.0000   1.0000   1.0000   1.0000   1.0000
     1.0000   1.0000   1.0000   1.0000   1.0000   1.0000   1.0000   1.0000
     1.0000   1.0000   1.0000   1.0000   1.0000   1.0000   1.0000   1.0000
     1.0000   1.0000   1.0000   1.0000   1.0000   1.0000   1.0000   1.0000
     1.0000   1.0000   1.0000   1.0000   1.0000   1.0000   1.0000   1.0000
     1.0000   1.0000   1.0000   1.0000   1.0000   1.0000   1.0000   1.0000
     1.0000   1.0000   1.0000   1.0000   1.0000   1.0000   1.0000   1.0000
     1.0000   1.0000   1.0000   1.0000   1.0000   1.0000   1.0000   1.0000
     1.0000   1.0000   1.0000   1.0000   1.0000   1.0000   1.0000   1.0000
     1.0000   1.0000   1.0000   1.0000   1.0000   1.0000   1.0000   1.0000
     1.0000   1.0000   1.0000   1.0000   1.0000   1.0000   1.0000   1.0000
     1.0000   1.0000   1.0000   1.0000   1.0000   1.0000   1.0000   1.0000
     1.0000   1.0000   1.0000   1.0000   1.0000   1.0000   1.0000   1.0000
     1.0000   1.0000   1.0000   1.0000   1.0000   1.0000   1.0000   1.0000
     1.0000   1.0000   1.0000   1.0000   1.0000   1.0000   1.0000   1.0000
     1.0000   1.0000   1.0000   1.0000   1.0000   1.0000   1.0000   1.0000
     1.0000   1.0000   1.0000   1.0000   1.0000   1.0000   1.0000   1.0000
     1.0000   1.0000   1.0000   1.0000   1.0000   1.0000   1.0000   1.0000
     1.0000   1.0000   1.0000   1.0000   1.0000   1.0000   1.0000   1.0000
     1.0000   1.0000   1.0000   1.0000   1.0000   1.0000   1.0000   1.0000
     1.0000   1.0000   1.0000   1.0000   1.0000   1.0000   1.0000   1.0000
     1.0000   1.0000   1.0000   1.0000   1.0000   1.0000   1.0000   1.0000
     1.0000   1.0000   1.0000   1.0000   1.0000   1.0000   1.0000   1.0000
     1.0000   1.0000   1.0000   1.0000   1.0000   1.0000   1.0000   1.0000
     1.0000   1.0000   1.0000   1.0000   1.0000   1.0000   1.0000   1.0000
     1.0000   1.0000   1.0000   1.0000   1.0000   1.0000   1.0000   1.0000
     1.0000   1.0000   1.0000   1.0000   1.0000   1.0000   1.0000   1.0000
     1.0000   1.0000   1.0000   1.0000   1.0000   1.0000   1.0000   1.0000
     1.0000   1.0000   1.0000   1.0000   1.0000   1.0000   1.0000   1.0000
     1.0000   1.0000   1.0000   1.0000   1.0000   1.0000   1.0000   1.0000
     1.0000   1.0000   1.0000   1.0000   1.0000   1.0000   1.0000   1.0000
     1.0000   1.0000   1.0000   1.0000   1.0000   1.0000   1.0000   1.0000
     1.0000   1.0000   1.0000   1.0000   1.0000   1.0000   1.0000   1.0000
     1.0000   1.0000   1.0000   1.0000   1.0000   1.0000   1.0000   1.0000
     1.0000   1.0000   1.0000   1.0000   1.0000   1.0000   1.0000   1.0000
     1.0000   1.0000   1.0000   1.0000   1.0000   1.0000   1.0000   1.0000
     1.0000   1.0000   1.0000   1.0000   1.0000   1.0000   1.0000   1.0000
     1.0000   1.0000   1.0000   1.0000   1.0000   1.0000   1.0000   1.0000
     1.0000   1.0000   1.0000   1.0000   1.0000   1.0000   1.0000   1.0000
     1.0000   1.0000   1.0000   1.0000   1.0000   1.0000   1.0000   1.0000
     1.0000   1.0000   1.0000   1.0000   1.0000   1.0000   1.0000   1.0000
     1.0000   1.0000   1.0000   1.0000   1.0000   1.0000   1.0000   1.0000
     1.0000   1.0000   1.0000   1.0000   1.0000   1.0000   1.0000   1.0000
     1.0000   1.0000   1.0000   1.0000   1.0000   1.0000   1.0000   1.0000
     1.0000   1.0000   1.0000   1.0000   1.0000   1.0000   1.0000   1.0000
     1.0000   1.0000   1.0000   1.0000   1.0000   1.0000   1.0000   1.0000
     1.0000   1.0000   1.0000   1.0000   1.0000   1.0000   1.0000   1.0000
     1.0000   1.0000   1.0000   1.0000   1.0000   1.0000   1.0000   1.0000
     1.0000   1.0000   1.0000   1.0000   1.0000   1.0000   1.0000   1.0000
     1.0000   1.0000   1.0000   1.0000   1.0000   1.0000   1.0000   1.0000
     1.0000   1.0000   1.0000   1.0000   1.0000   1.0000   1.0000   1.0000
     1.0000   1.0000   1.0000   1.0000   1.0000   1.0000   1.0000   1.0000
     1.0000   1.0000   1.0000   1.0000   1.0000   1.0000   1.0000   1.0000
     1.0000   1.0000   1.0000   1.0000   1.0000   1.0000   1.0000   1.0000
     1.0000   1.0000   1.0000   1.0000   1.0000   1.0000   1.0000   1.0000
     1.0000   1.0000   1.0000   1.0000   1.0000   1.0000   1.0000   1.0000
     1.0000   1.0000   1.0000   1.0000   1.0000   1.0000   1.0000   1.0000
     1.0000   1.0000   1.0000   1.0000   1.0000   1.0000   1.0000   1.0000
     1.0000   1.0000   1.0000   1.0000   1.0000   1.0000   1.0000   1.0000
     1.0000   1.0000   1.0000   1.0000   1.0000   1.0000   1.0000   1.0000
     1.0000   1.0000   1.0000   1.0000   1.0000   1.0000   1.0000   1.0000
     1.0000   1.0000   1.0000   1.0000   1.0000   1.0000   1.0000   1.0000
     1.0000   1.0000   1.0000   1.0000   1.0000   1.0000   1.0000   1.0000
     1.0000   1.0000   1.0000   1.0000   1.0000   1.0000   1.0000   1.0000
     1.0000   1.0000   1.0000   1.0000   1.0000   1.0000   1.0000   1.0000
     1.0000   1.0000   1.0000   1.0000   1.0000   1.0000   1.0000   1.0000
     1.0000   1.0000   1.0000   1.0000   1.0000   1.0000   1.0000   1.0000
     1.0000   1.0000   1.0000   1.0000   1.0000   1.0000   1.0000   1.0000
     1.0000   1.0000   1.0000   1.0000   1.0000   1.0000   1.0000   1.0000
     1.0000   1.0000   1.0000   1.0000   1.0000   1.0000   1.0000   1.0000
     1.0000   1.0000   1.0000   1.0000   1.0000   1.0000   1.0000   1.0000
     1.0000   1.0000   1.0000   1.0000   1.0000   1.0000   1.0000   1.0000
     1.0000   1.0000   1.0000   1.0000   1.0000   1.0000   1.0000   1.0000
     1.0000   1.0000   1.0000   1.0000   1.0000   1.0000   1.0000   1.0000
     1.0000   1.0000   1.0000   1.0000   1.0000   1.0000   1.0000   1.0000
     1.0000   1.0000   1.0000   1.0000   1.0000   1.0000   1.0000   1.0000
     1.0000   1.0000   0.0000   0.0000   0.0000   0.0000   0.0000   0.0000
     0.0000   0.0000   0.0000   0.0000   0.0000   0.0000   0.0000   0.0000
     0.0000   0.0000   0.0000   0.0000   0.0000   0.0000   0.0000   0.0000
     0.0000   0.0000   0.0000   0.0000   0.0000   0.0000   0.0000   0.0000
     0.0000   0.0000   0.0000   0.0000   0.0000   0.0000   0.0000   0.0000
     0.0000   0.0000   0.0000   0.0000   0.0000   0.0000   0.0000   0.0000
     0.0000   0.0000   0.0000   0.0000   0.0000   0.0000   0.0000   0.0000
     0.0000   0.0000   0.0000   0.0000   0.0000   0.0000   0.0000   0.0000
     0.0000   0.0000   0.0000   0.0000   0.0000   0.0000   0.0000   0.0000
     0.0000   0.0000   0.0000   0.0000   0.0000   0.0000   0.0000   0.0000
     0.0000   0.0000   0.0000   0.0000   0.0000   0.0000   0.0000   0.0000
     0.0000   0.0000   0.0000   0.0000   0.0000   0.0000   0.0000   0.0000
     0.0000   0.0000   0.0000   0.0000   0.0000   0.0000   0.0000   0.0000
     0.0000   0.0000   0.0000   0.0000   0.0000   0.0000   0.0000   0.0000
     0.0000   0.0000   0.0000   0.0000   0.0000   0.0000   0.0000   0.0000
     0.0000   0.0000   0.0000   0.0000   0.0000   0.0000   0.0000   0.0000
     0.0000   0.0000   0.0000   0.0000   0.0000   0.0000   0.0000   0.0000
     0.0000   0.0000   0.0000   0.0000   0.0000   0.0000   0.0000   0.0000
     0.0000   0.0000   0.0000   0.0000   0.0000   0.0000   0.0000   0.0000
     0.0000   0.0000   0.0000   0.0000   0.0000   0.0000   0.0000   0.0000
     0.0000   0.0000   0.0000   0.0000   0.0000   0.0000   0.0000   0.0000
     0.0000   0.0000   0.0000   0.0000   0.0000   0.0000   0.0000   0.0000
     0.0000   0.0000   0.0000   0.0000   0.0000   0.0000   0.0000   0.0000
     0.0000   0.0000   0.0000   0.0000   0.0000   0.0000   0.0000   0.0000
     0.0000   0.0000   0.0000   0.0000   0.0000   0.0000   0.0000   0.0000
     0.0000   0.0000   0.0000   0.0000   0.0000   0.0000   0.0000   0.0000
     0.0000   0.0000   0.0000   0.0000   0.0000   0.0000   0.0000   0.0000
     0.0000   0.0000   0.0000   0.0000   0.0000   0.0000   0.0000   0.0000
     0.0000   0.0000   0.0000   0.0000   0.0000   0.0000   0.0000   0.0000
     0.0000   0.0000   0.0000   0.0000   0.0000   0.0000   0.0000   0.0000
     0.0000   0.0000   0.0000   0.0000   0.0000   0.0000   0.0000   0.0000
     0.0000   0.0000   0.0000   0.0000   0.0000   0.0000   0.0000   0.0000
     0.0000   0.0000   0.0000   0.0000   0.0000   0.0000   0.0000   0.0000
     0.0000   0.0000   0.0000   0.0000   0.0000   0.0000   0.0000   0.0000
     0.0000   0.0000   0.0000   0.0000   0.0000   0.0000   0.0000   0.0000
     0.0000   0.0000   0.0000   0.0000   0.0000   0.0000   0.0000   0.0000
     0.0000   0.0000   0.0000   0.0000   0.0000   0.0000   0.0000   0.0000
     0.0000   0.0000   0.0000   0.0000   0.0000   0.0000   0.0000   0.0000
     0.0000   0.0000   0.0000   0.0000   0.0000   0.0000   0.0000   0.0000
     0.0000   0.0000   0.0000   0.0000   0.0000   0.0000   0.0000   0.0000
     0.0000   0.0000   0.0000   0.0000   0.0000   0.0000   0.0000   0.0000
     0.0000   0.0000   0.0000   0.0000   0.0000   0.0000   0.0000   0.0000
     0.0000   0.0000   0.0000   0.0000   0.0000   0.0000   0.0000   0.0000
     0.0000   0.0000   0.0000   0.0000   0.0000   0.0000   0.0000   0.0000
     0.0000   0.0000   0.0000   0.0000   0.0000   0.0000   0.0000   0.0000
     0.0000   0.0000   0.0000   0.0000   0.0000   0.0000   0.0000   0.0000
     0.0000   0.0000   0.0000   0.0000   0.0000   0.0000   0.0000   0.0000
     0.0000   0.0000   0.0000   0.0000   0.0000   0.0000   0.0000   0.0000
     0.0000   0.0000   0.0000   0.0000   0.0000   0.0000   0.0000   0.0000
     0.0000   0.0000   0.0000   0.0000   0.0000   0.0000   0.0000   0.0000
     0.0000   0.0000   0.0000   0.0000   0.0000   0.0000   0.0000   0.0000
     0.0000   0.0000   0.0000   0.0000   0.0000   0.0000   0.0000   0.0000
     0.0000   0.0000   0.0000   0.0000   0.0000   0.0000   0.0000   0.0000
     0.0000   0.0000   0.0000   0.0000   0.0000   0.0000   0.0000   0.0000
     0.0000   0.0000   0.0000   0.0000   0.0000   0.0000   0.0000   0.0000
     0.0000   0.0000   0.0000   0.0000   0.0000   0.0000   0.0000   0.0000
     0.0000   0.0000   0.0000   0.0000   0.0000   0.0000   0.0000   0.0000
     0.0000   0.0000   0.0000   0.0000   0.0000   0.0000   0.0000   0.0000
[...]
     1.0000   1.0000   1.0000   1.0000   1.0000   1.0000   1.0000   1.0000
     1.0000   1.0000   1.0000   1.0000   1.0000   1.0000   1.0000   1.0000
     1.0000   1.0000   1.0000   1.0000   1.0000   1.0000   1.0000   1.0000
     1.0000   1.0000   1.0000   1.0000   1.0000   1.0000   1.0000   1.0000
     1.0000   1.0000   1.0000   1.0000   1.0000   1.0000   1.0000   1.0000
     1.0000   1.0000   1.0000   1.0000   1.0000   1.0000   1.0000   1.0000
     1.0000   1.0000   1.0000   1.0000   1.0000   1.0000   1.0000   1.0000
     1.0000   1.0000   1.0000   1.0000   1.0000   1.0000   1.0000   1.0000
     1.0000   1.0000   1.0000   1.0000   1.0000   1.0000   1.0000   1.0000
     1.0000   1.0000   1.0000   1.0000   1.0000   1.0000   1.0000   1.0000
     1.0000   1.0000   1.0000   1.0000   1.0000   1.0000   1.0000   1.0000
     1.0000   1.0000   1.0000   1.0000   1.0000   1.0000   1.0000   1.0000
     1.0000   1.0000   1.0000   1.0000   1.0000   1.0000   1.0000   1.0000
     1.0000   1.0000   1.0000   1.0000   1.0000   1.0000   1.0000   1.0000
     1.0000   1.0000   1.0000   1.0000   1.0000   1.0000   1.0000   1.0000
     1.0000   1.0000   1.0000   1.0000   1.0000   1.0000   1.0000   1.0000
     1.0000   1.0000   1.0000   1.0000   1.0000   1.0000   1.0000   1.0000
     1.0000   1.0000   1.0000   1.0000   1.0000   1.0000   1.0000   1.0000
     1.0000   1.0000   1.0000   1.0000   1.0000   1.0000   1.0000   1.0000
     1.0000   1.0000   1.0000   1.0000   1.0000   1.0000   1.0000   1.0000
     1.0000   1.0000   1.0000   1.0000   1.0000   1.0000   1.0000   1.0000
     1.0000   1.0000   1.0000   1.0000   1.0000   1.0000   1.0000   1.0000
     1.0000   1.0000   1.0000   1.0000   1.0000   1.0000   1.0000   1.0000
     0.0000   0.0000   0.0000   0.0000   0.0000   0.0000   0.0000   0.0000
     0.0000   0.0000   0.0000   0.0000   0.0000   0.0000   0.0000   0.0000
     0.0000   0.0000   0.0000   0.0000   0.0000   0.0000   0.0000   0.0000
     0.0000   0.0000   0.0000   0.0000   0.0000   0.0000   0.0000   0.0000
     0.0000   0.0000   0.0000   0.0000   0.0000   0.0000   0.0000   0.0000
     0.0000   0.0000   0.0000   0.0000   0.0000   0.0000   0.0000   0.0000
     0.0000   0.0000   0.0000   0.0000   0.0000   0.0000   0.0000   0.0000
     0.0000   0.0000   0.0000   0.0000   0.0000   0.0000   0.0000   0.0000
     0.0000   0.0000   0.0000   0.0000   0.0000   0.0000   0.0000   0.0000
     0.0000   0.0000   0.0000   0.0000   0.0000   0.0000   0.0000   0.0000
     0.0000   0.0000   0.0000   0.0000   0.0000   0.0000   0.0000   0.0000
     0.0000   0.0000   0.0000   0.0000   0.0000   0.0000   0.0000   0.0000
     0.0000   0.0000   0.0000   0.0000   0.0000   0.0000   0.0000   0.0000
     0.0000   0.0000   0.0000   0.0000   0.0000   0.0000   0.0000   0.0000
     0.0000   0.0000   0.0000   0.0000   0.0000   0.0000   0.0000   0.0000
     0.0000   0.0000   0.0000   0.0000   0.0000   0.0000   0.0000   0.0000
     0.0000   0.0000   0.0000   0.0000   0.0000   0.0000   0.0000   0.0000
     0.0000   0.0000   0.0000   0.0000   0.0000   0.0000   0.0000   0.0000
     0.0000   0.0000   0.0000   0.0000   0.0000   0.0000   0.0000   0.0000
     0.0000   0.0000   0.0000   0.0000   0.0000   0.0000   0.0000   0.0000
     0.0000   0.0000   0.0000   0.0000   0.0000   0.0000   0.0000   0.0000
     0.0000   0.0000   0.0000   0.0000   0.0000   0.0000   0.0000   0.0000
     0.0000   0.0000   0.0000   0.0000   0.0000   0.0000   0.0000   0.0000
     0.0000   0.0000   0.0000   0.0000   0.0000   0.0000   0.0000   0.0000
     0.0000   0.0000   0.0000   0.0000   0.0000   0.0000   0.0000   0.0000
     0.0000   0.0000   0.0000   0.0000   0.0000   0.0000   0.0000   0.0000
     0.0000   0.0000   0.0000   0.0000   0.0000   0.0000   0.0000   0.0000
     0.0000   0.0000   0.0000   0.0000   0.0000   0.0000   0.0000   0.0000
     0.0000   0.0000   0.0000   0.0000   0.0000   0.0000   0.0000   0.0000
     0.0000   0.0000   0.0000   0.0000   0.0000   0.0000   0.0000   0.0000
     0.0000   0.0000   0.0000   0.0000   0.0000   0.0000   0.0000   0.0000
     0.0000   0.0000   0.0000   0.0000   0.0000   0.0000   0.0000   0.0000
     0.0000   0.0000   0.0000   0.0000   0.0000   0.0000   0.0000   0.0000
     0.0000   0.0000   0.0000   0.0000   0.0000   0.0000   0.0000   0.0000
     0.0000   0.0000   0.0000   0.0000   0.0000   0.0000   0.0000   0.0000
     0.0000   0.0000   0.0000   0.0000   0.0000   0.0000   0.0000   0.0000
     0.0000   0.0000   0.0000   0.0000   0.0000   0.0000   0.0000   0.0000
     0.0000   0.0000   0.0000   0.0000   0.0000   0.0000   0.0000   0.0000
     0.0000   0.0000   0.0000   0.0000   0.0000   0.0000   0.0000   0.0000
     0.0000   0.0000   0.0000   0.0000   0.0000   0.0000   0.0000   0.0000
     0.0000   0.0000   0.0000   0.0000   0.0000   0.0000   0.0000   0.0000
     0.0000   0.0000   0.0000   0.0000   0.0000   0.0000   0.0000   0.0000
     0.0000   0.0000   0.0000   0.0000   0.0000   0.0000   0.0000   0.0000
     0.0000   0.0000   0.0000   0.0000   0.0000   0.0000   0.0000   0.0000
     0.0000   0.0000   0.0000   0.0000   0.0000   0.0000   0.0000   0.0000
     0.0000   0.0000   0.0000   0.0000   0.0000   0.0000   0.0000   0.0000
     0.0000   0.0000   0.0000   0.0000   0.0000   0.0000   0.0000   0.0000
     0.0000   0.0000   0.0000   0.0000   0.0000   0.0000   0.0000   0.0000
     0.0000   0.0000   0.0000   0.0000   0.0000   0.0000   0.0000   0.0000
     0.0000   0.0000   0.0000   0.0000   0.0000   0.0000   0.0000   0.0000
     0.0000   0.0000   0.0000   0.0000   0.0000   0.0000   0.0000   0.0000
     0.0000   0.0000   0.0000   0.0000   0.0000   0.0000   0.0000   0.0000
     0.0000   0.0000   0.0000   0.0000   0.0000   0.0000   0.0000   0.0000
     0.0000   0.0000   0.0000   0.0000   0.0000   0.0000   0.0000   0.0000
     0.0000   0.0000   0.0000   0.0000   0.0000   0.0000   0.0000   0.0000
     0.0000   0.0000   0.0000   0.0000   0.0000   0.0000   0.0000   0.0000
     0.0000   0.0000   0.0000   0.0000   0.0000   0.0000   0.0000   0.0000
     0.0000   0.0000   0.0000   0.0000   0.0000   0.0000   0.0000   0.0000
     0.0000   0.0000   0.0000   0.0000   0.0000   0.0000   0.0000   0.0000
     0.0000   0.0000   0.0000   0.0000   0.0000   0.0000   0.0000   0.0000
     0.0000   0.0000   0.0000   0.0000   0.0000   0.0000   0.0000   0.0000
     0.0000   0.0000   0.0000   0.0000   0.0000   0.0000   0.0000   0.0000
     0.0000   0.0000   0.0000   0.0000   0.0000   0.0000   0.0000   0.0000
     0.0000   0.0000   0.0000   0.0000   0.0000   0.0000   0.0000   0.0000
     0.0000   0.0000   0.0000   0.0000   0.0000   0.0000   0.0000   0.0000
     0.0000   0.0000   0.0000   0.0000   0.0000   0.0000   0.0000   0.0000
     0.0000   0.0000   0.0000   0.0000   0.0000   0.0000   0.0000   0.0000
     0.0000   0.0000   0.0000   0.0000   0.0000   0.0000   0.0000   0.0000
     0.0000   0.0000   0.0000   0.0000   0.0000   0.0000   0.0000   0.0000
     0.0000   0.0000   0.0000   0.0000   0.0000   0.0000   0.0000   0.0000
     0.0000   0.0000   0.0000   0.0000   0.0000   0.0000   0.0000   0.0000
     0.0000   0.0000   0.0000   0.0000   0.0000   0.0000   0.0000   0.0000
     0.0000   0.0000   0.0000   0.0000   0.0000   0.0000   0.0000   0.0000
     0.0000   0.0000   0.0000   0.0000   0.0000   0.0000   0.0000   0.0000
     0.0000   0.0000   0.0000   0.0000   0.0000   0.0000   0.0000   0.0000
     0.0000   0.0000   0.0000   0.0000   0.0000   0.0000   0.0000   0.0000
     0.0000   0.0000   0.0000   0.0000   0.0000   0.0000   0.0000   0.0000
     0.0000   0.0000   0.0000   0.0000   0.0000   0.0000   0.0000   0.0000
     0.0000   0.0000   0.0000   0.0000   0.0000   0.0000   0.0000   0.0000
     0.0000   0.0000   0.0000   0.0000   0.0000   0.0000   0.0000   0.0000
     0.0000   0.0000   0.0000   0.0000   0.0000   0.0000   0.0000   0.0000
     0.0000   0.0000   0.0000   0.0000   0.0000   0.0000   0.0000   0.0000
     0.0000   0.0000   0.0000   0.0000   0.0000   0.0000   0.0000   0.0000
     0.0000   0.0000   0.0000   0.0000   0.0000   0.0000   0.0000   0.0000
     0.0000   0.0000   0.0000   0.0000   0.0000   0.0000   0.0000   0.0000
     0.0000   0.0000   0.0000   0.0000   0.0000   0.0000   0.0000   0.0000
     0.0000   0.0000   0.0000   0.0000   0.0000   0.0000   0.0000   0.0000
     0.0000   0.0000   0.0000   0.0000   0.0000   0.0000   0.0000   0.0000
     0.0000   0.0000   0.0000   0.0000   0.0000   0.0000   0.0000   0.0000
     0.0000   0.0000   0.0000   0.0000   0.0000   0.0000   0.0000   0.0000
     0.0000   0.0000   0.0000   0.0000   0.0000   0.0000   0.0000   0.0000
     0.0000   0.0000   0.0000   0.0000   0.0000   0.0000   0.0000   0.0000
     0.0000   0.0000   0.0000   0.0000   0.0000   0.0000   0.0000   0.0000
     0.0000   0.0000   0.0000   0.0000   0.0000   0.0000   0.0000   0.0000
     0.0000   0.0000   0.0000   0.0000   0.0000   0.0000   0.0000   0.0000
     0.0000   0.0000   0.0000   0.0000   0.0000   0.0000   0.0000   0.0000
     0.0000   0.0000   0.0000   0.0000   0.0000   0.0000   0.0000   0.0000
     0.0000   0.0000   0.0000   0.0000   0.0000   0.0000   0.0000   0.0000
     0.0000   0.0000   0.0000   0.0000   0.0000   0.0000   0.0000   0.0000
     0.0000   0.0000   0.0000   0.0000   0.0000   0.0000   0.0000   0.0000
     0.0000   0.0000   0.0000   0.0000   0.0000   0.0000   0.0000   0.0000
     0.0000   0.0000   0.0000   0.0000   0.0000   0.0000   0.0000   0.0000
     0.0000   0.0000   0.0000   0.0000   0.0000   0.0000   0.0000   0.0000
     0.0000   0.0000   0.0000   0.0000   0.0000   0.0000   0.0000   0.0000
     0.0000   0.0000   0.0000   0.0000   0.0000   0.0000   0.0000   0.0000
     0.0000   0.0000   0.0000   0.0000   0.0000   0.0000   0.0000   0.0000
     0.0000   0.0000   0.0000   0.0000   0.0000   0.0000   0.0000   0.0000
     0.0000   0.0000   0.0000   0.0000   0.0000   0.0000   0.0000   0.0000
     0.0000   0.0000   0.0000   0.0000   0.0000   0.0000   0.0000   0.0000
     0.0000   0.0000   0.0000   0.0000   0.0000   0.0000   0.0000   0.0000
     0.0000   0.0000   0.0000   0.0000   0.0000   0.0000   0.0000   0.0000
     0.0000   0.0000   0.0000   0.0000   0.0000   0.0000   0.0000   0.0000
     0.0000   0.0000   0.0000   0.0000   0.0000   0.0000   0.0000   0.0000
     0.0000   0.0000   0.0000   0.0000   0.0000   0.0000   0.0000   0.0000
     0.0000   0.0000   0.0000   0.0000   0.0000   0.0000   0.0000   0.0000
     0.0000   0.0000   0.0000   0.0000   0.0000   0.0000   0.0000   0.0000
     0.0000   0.0000   0.0000   0.0000   0.0000   0.0000   0.0000   0.0000
     0.0000   0.0000   0.0000   0.0000   0.0000   0.0000   0.0000   0.0000
     0.0000   0.0000   0.0000   0.0000   0.0000   0.0000   0.0000   0.0000
     0.0000   0.0000   0.0000   0.0000   0.0000   0.0000   0.0000   0.0000
     0.0000   0.0000   0.0000   0.0000   0.0000   0.0000   0.0000   0.0000
     0.0000   0.0000   0.0000   0.0000   0.0000   0.0000   0.0000   0.0000
     0.0000   0.0000   0.0000   0.0000   0.0000   0.0000   0.0000   0.0000
     0.0000   0.0000   0.0000   0.0000   0.0000   0.0000   0.0000   0.0000
     0.0000   0.0000   0.0000   0.0000   0.0000   0.0000   0.0000   0.0000
     0.0000   0.0000   0.0000   0.0000   0.0000   0.0000   0.0000   0.0000
     0.0000   0.0000   0.0000   0.0000   0.0000   0.0000   0.0000   0.0000
     0.0000   0.0000   0.0000   0.0000   0.0000   0.0000   0.0000   0.0000
     0.0000   0.0000   0.0000   0.0000   0.0000   0.0000   0.0000   0.0000
     0.0000   0.0000   0.0000   0.0000   0.0000   0.0000   0.0000   0.0000
     0.0000   0.0000   0.0000   0.0000   0.0000   0.0000   0.0000   0.0000
     0.0000   0.0000   0.0000   0.0000   0.0000   0.0000   0.0000   0.0000
     0.0000   0.0000   0.0000   0.0000   0.0000   0.0000   0.0000   0.0000
     0.0000   0.0000   0.0000   0.0000   0.0000   0.0000   0.0000   0.0000
     0.0000   0.0000   0.0000   0.0000   0.0000   0.0000   0.0000   0.0000
     0.0000   0.0000   0.0000   0.0000   0.0000   0.0000   0.0000   0.0000
     0.0000   0.0000   0.0000   0.0000   0.0000   0.0000   0.0000   0.0000
     0.0000   0.0000   0.0000   0.0000   0.0000   0.0000   0.0000   0.0000
     0.0000   0.0000   0.0000   0.0000   0.0000   0.0000   0.0000   0.0000
     0.0000   0.0000   0.0000   0.0000   0.0000   0.0000   0.0000   0.0000
     0.0000   0.0000   0.0000   0.0000   0.0000   0.0000   0.0000   0.0000
     0.0000   0.0000   0.0000   0.0000   0.0000   0.0000   0.0000   0.0000
     0.0000   0.0000   0.0000   0.0000   0.0000   0.0000   0.0000   0.0000
     0.0000   0.0000   0.0000   0.0000   0.0000   0.0000   0.0000   0.0000
     0.0000   0.0000   0.0000   0.0000   0.0000   0.0000   0.0000   0.0000
     0.0000   0.0000   0.0000   0.0000   0.0000   0.0000   0.0000   0.0000
     0.0000   0.0000   0.0000   0.0000   0.0000   0.0000   0.0000   0.0000
     0.0000   0.0000   0.0000   0.0000   0.0000   0.0000   0.0000   0.0000
     0.0000   0.0000   0.0000   0.0000   0.0000   0.0000   0.0000   0.0000
     0.0000   0.0000   0.0000   0.0000   0.0000   0.0000   0.0000   0.0000
     0.0000   0.0000   0.0000   0.0000   0.0000   0.0000   0.0000   0.0000
     0.0000   0.0000   0.0000   0.0000   0.0000   0.0000   0.0000   0.0000
     0.0000   0.0000   0.0000   0.0000   0.0000   0.0000   0.0000   0.0000
     0.0000   0.0000   0.0000   0.0000   0.0000   0.0000   0.0000   0.0000
     0.0000   0.0000   0.0000   0.0000   0.0000   0.0000   0.0000   0.0000
     0.0000   0.0000   0.0000   0.0000   0.0000   0.0000   0.0000   0.0000
     0.0000   0.0000   0.0000   0.0000   0.0000   0.0000   0.0000   0.0000
     0.0000   0.0000   0.0000   0.0000   0.0000   0.0000   0.0000   0.0000
     0.0000   0.0000   0.0000   0.0000   0.0000   0.0000   0.0000   0.0000
     0.0000   0.0000   0.0000   0.0000   0.0000   0.0000   0.0000   0.0000
     0.0000   0.0000   0.0000   0.0000   0.0000   0.0000   0.0000   0.0000
     0.0000   0.0000   0.0000   0.0000   0.0000   0.0000   0.0000   0.0000
     0.0000   0.0000   0.0000   0.0000   0.0000   0.0000   0.0000   0.0000
     0.0000   0.0000   0.0000   0.0000   0.0000   0.0000   0.0000   0.0000
     0.0000   0.0000   0.0000   0.0000   0.0000   0.0000   0.0000   0.0000
     0.0000   0.0000   0.0000   0.0000   0.0000   0.0000   0.0000   0.0000
     0.0000   0.0000   0.0000   0.0000   0.0000   0.0000   0.0000   0.0000
     0.0000   0.0000   0.0000   0.0000   0.0000   0.0000   0.0000   0.0000
     0.0000   0.0000   0.0000   0.0000   0.0000   0.0000   0.0000   0.0000
     0.0000   0.0000   0.0000   0.0000   0.0000   0.0000   0.0000   0.0000
     0.0000   0.0000   0.0000   0.0000   0.0000   0.0000   0.0000   0.0000
     0.0000   0.0000   0.0000   0.0000   0.0000   0.0000   0.0000   0.0000
     0.0000   0.0000   0.0000   0.0000   0.0000   0.0000   0.0000   0.0000
     0.0000   0.0000   0.0000   0.0000   0.0000   0.0000   0.0000   0.0000
     0.0000   0.0000   0.0000   0.0000   0.0000   0.0000   0.0000   0.0000
     0.0000   0.0000   0.0000   0.0000   0.0000   0.0000   0.0000   0.0000
     0.0000   0.0000   0.0000   0.0000   0.0000   0.0000   0.0000   0.0000
     0.0000   0.0000   0.0000   0.0000   0.0000   0.0000   0.0000   0.0000
     0.0000   0.0000   0.0000   0.0000   0.0000   0.0000   0.0000   0.0000
     0.0000   0.0000   0.0000   0.0000   0.0000   0.0000   0.0000   0.0000
     0.0000   0.0000   0.0000   0.0000   0.0000   0.0000   0.0000   0.0000
     0.0000   0.0000   0.0000   0.0000   0.0000   0.0000   0.0000   0.0000
     0.0000   0.0000   0.0000   0.0000   0.0000   0.0000   0.0000   0.0000
     0.0000   0.0000   0.0000   0.0000   0.0000   0.0000   0.0000   0.0000
     0.0000   0.0000   0.0000   0.0000   0.0000   0.0000   0.0000   0.0000
     0.0000   0.0000   0.0000   0.0000   0.0000   0.0000   0.0000   0.0000
     0.0000   0.0000   0.0000   0.0000   0.0000   0.0000   0.0000   0.0000
     0.0000   0.0000   0.0000   0.0000   0.0000   0.0000   0.0000   0.0000
     0.0000   0.0000   0.0000   0.0000   0.0000   0.0000   0.0000   0.0000
     0.0000   0.0000   0.0000   0.0000   0.0000   0.0000   0.0000   0.0000
     0.0000   0.0000   0.0000   0.0000   0.0000   0.0000   0.0000   0.0000
     0.0000   0.0000   0.0000   0.0000   0.0000   0.0000   0.0000   0.0000
     0.0000   0.0000   0.0000   0.0000   0.0000   0.0000   0.0000   0.0000
     0.0000   0.0000   0.0000   0.0000   0.0000   0.0000   0.0000   0.0000
     0.0000   0.0000   0.0000   0.0000   0.0000   0.0000   0.0000   0.0000

     highest occupied, lowest unoccupied level (ev):     9.0767   11.6861

     Writing all to output data dir ./pwscf.save/ :
     XML data file, pseudopotentials, collected wavefunctions

     init_run     :      2.44s CPU      5.10s WALL (       1 calls)
     electrons    :   5586.01s CPU   6677.28s WALL (       1 calls)

     Called by init_run:
     aceinit0     :      1.40s CPU      3.92s WALL (       1 calls)
     wfcinit      :      0.00s CPU      0.01s WALL (       1 calls)
     wfcinit:atom :      0.37s CPU      0.65s WALL (       4 calls)
     wfcinit:wfcr :    138.33s CPU    146.73s WALL (       4 calls)
     potinit      :      0.22s CPU      0.34s WALL (       1 calls)
     hinit0       :      0.70s CPU      0.71s WALL (       1 calls)

     Called by electrons:
     c_bands      :   4570.59s CPU   4785.46s WALL (       2 calls)
     sum_band     :      0.73s CPU      1.24s WALL (       1 calls)
     v_of_rho     :      0.40s CPU      0.47s WALL (       2 calls)
     v_h          :      0.02s CPU      0.03s WALL (       2 calls)
     v_xc         :      0.39s CPU      0.44s WALL (       2 calls)

     Called by c_bands:
     init_us_2    :      0.92s CPU      1.07s WALL (       6 calls)
     init_us_2:cp :      0.92s CPU      1.07s WALL (       6 calls)
     regterg      :   4429.34s CPU   4631.51s WALL (       6 calls)

     Called by sum_band:
     sum_band:wei :      0.00s CPU      0.00s WALL (       1 calls)
     sum_band:loo :      0.71s CPU      1.16s WALL (       1 calls)
     sum_band:buf :      0.00s CPU      0.41s WALL (       2 calls)
     sum_band:ini :      0.29s CPU      0.32s WALL (       2 calls)

     Called by *egterg:
     rdiaghg      :   3058.18s CPU   3064.80s WALL (     115 calls)
     regterg:over :    110.80s CPU    174.84s WALL (     111 calls)
     regterg:upda :     53.79s CPU     68.32s WALL (     111 calls)
     regterg:last :    143.43s CPU    174.80s WALL (      58 calls)
     h_psi        :   1130.24s CPU   1166.91s WALL (     121 calls)
     g_psi        :      2.71s CPU      2.72s WALL (     111 calls)

     Called by h_psi:
     h_psi:calbec :    185.02s CPU    188.87s WALL (     121 calls)
     vloc_psi     :    326.97s CPU    344.08s WALL (     121 calls)
     add_vuspsi   :    200.32s CPU    202.43s WALL (     121 calls)

     General routines
     calbec       :    340.63s CPU    347.01s WALL (     244 calls)
     fft          :      0.29s CPU      0.35s WALL (      25 calls)
     ffts         :      0.01s CPU      0.01s WALL (       1 calls)
     fftw         :    284.54s CPU    299.61s WALL (  171424 calls)
     fftc         :    528.10s CPU    576.78s WALL (  437150 calls)
     fftcw        :      2.83s CPU      3.74s WALL (    3342 calls)
     davcio       :      0.01s CPU      2.73s WALL (      16 calls)

     Parallel routines

     EXX routines
     exx_grid     :      0.00s CPU      0.00s WALL (       1 calls)
     exxinit      :     39.71s CPU     50.21s WALL (       1 calls)
     vexx         :    960.50s CPU   1825.11s WALL (       2 calls)
     matcalc      :    156.39s CPU    158.93s WALL (     123 calls)
     aceupdate    :      7.16s CPU      7.26s WALL (       2 calls)
     vexxace      :    406.85s CPU    420.13s WALL (     121 calls)
     aceinit      :    974.58s CPU   1839.49s WALL (       2 calls)

     PWSCF        :      1h33m CPU      1h51m WALL


   This run was terminated on:  11:20:35  28Dec2024            

=------------------------------------------------------------------------------=
   JOB DONE.
=------------------------------------------------------------------------------=
