
     Program PWSCF v.7.3 starts on 28Dec2024 at  5:53:35 

     This program is part of the open-source Quantum ESPRESSO suite
     for quantum simulation of materials; please cite
         "P. Giannozzi et al., J. Phys.:Condens. Matter 21 395502 (2009);
         "P. Giannozzi et al., J. Phys.:Condens. Matter 29 465901 (2017);
         "P. Giannozzi et al., J. Chem. Phys. 152 154105 (2020);
          URL http://www.quantum-espresso.org", 
     in publications or presentations arising from this work. More details at
     http://www.quantum-espresso.org/quote

     Parallel version (MPI & OpenMP), running on     256 processor cores
     Number of MPI processes:               256
     Threads/MPI process:                     1

     MPI processes distributed on     4 nodes
     484752 MiB available memory on the printing compute node when the environment starts

     Reading input from scf.in
Warning: card &CELL ignored
Warning: card / ignored

     Current dimensions of program PWSCF are:
     Max number of different atomic species (ntypx) = 10
     Max number of k-points (npk) =  40000
     Max angular momentum in pseudopotentials (lmaxx) =  4

     IMPORTANT: XC functional enforced from input :
     Exchange-correlation= PBE0
                           (   6   4   8   4   0   0   0)
     EXX-fraction              =        0.25
     Any further DFT definition will be discarded
     Please, verify this is what you really want


     gamma-point specific algorithms are used

     band groups division:  nbgrp     =       8
     R & G space division:  proc/nbgrp/npool/nimage =      32
     Subspace diagonalization in iterative solution of the eigenvalue problem:
     a serial algorithm will be used

     EXX: q-point mesh:     1    1    1
     EXX: grid of k+q points same as grid of k-points

     Parallelization info
     --------------------
     sticks:   dense  smooth     PW     G-vecs:    dense   smooth      PW
     Min         311     311     77                30224    30224    3774
     Max         314     314     82                30240    30240    3786
     Sum        9985    9985   2503               967453   967453  120943

     Using Slab Decomposition



     bravais-lattice index     =            0
     lattice parameter (alat)  =      24.5558  a.u.
     unit-cell volume          =   15406.2245 (a.u.)^3
     number of atoms/cell      =          191
     number of atomic types    =            3
     number of electrons       =      2482.00 (up:1242.00, down:1240.00)
     number of Kohn-Sham states=         1400
     kinetic-energy cutoff     =      60.0000  Ry
     charge density cutoff     =     240.0000  Ry
     cutoff for Fock operator  =     120.0000  Ry
     scf convergence threshold =      1.0E-09
     mixing beta               =       0.3000
     number of iterations used =            8  plain     mixing
     Exchange-correlation= PBE0
                           (   6   4   8   4   0   0   0)
     EXX-fraction              =        0.25

     celldm(1)=  24.555771  celldm(2)=   0.000000  celldm(3)=   0.000000
     celldm(4)=   0.000000  celldm(5)=   0.000000  celldm(6)=   0.000000

     crystal axes: (cart. coord. in units of alat)
               a(1) = (   1.000000   0.000000   0.000000 )  
               a(2) = (  -0.500000   0.866025   0.000000 )  
               a(3) = (   0.000000   0.000000   1.201448 )  

     reciprocal axes: (cart. coord. in units 2 pi/alat)
               b(1) = (  1.000000  0.577350 -0.000000 )  
               b(2) = (  0.000000  1.154701  0.000000 )  
               b(3) = (  0.000000 -0.000000  0.832329 )  


     PseudoPot. # 1 for Zn read from file:
     /global/homes/s/szhan213/Pseudopotential/pseudo-ONCV-proj/Zn_ONCV_PBE-1.0.upf
     MD5 check sum: ae6b10b2f6b19ce60903c0642ac7817b
     Pseudo is Norm-conserving, Zval = 20.0
     Generated using ONCVPSP code by D. R. Hamann
     Using radial grid of 1326 points,  6 beta functions with: 
                l(1) =   0
                l(2) =   0
                l(3) =   1
                l(4) =   1
                l(5) =   2
                l(6) =   2

     PseudoPot. # 2 for O  read from file:
     /global/homes/s/szhan213/Pseudopotential/pseudo-ONCV-proj/O_ONCV_PBE-1.0.upf
     MD5 check sum: 4746e673ba7a0ba6c5be19d6c81ea579
     Pseudo is Norm-conserving, Zval =  6.0
     Generated using ONCVPSP code by D. R. Hamann
     Using radial grid of  936 points,  4 beta functions with: 
                l(1) =   0
                l(2) =   0
                l(3) =   1
                l(4) =   1

     PseudoPot. # 3 for Mo read from file:
     /global/homes/s/szhan213/Pseudopotential/pseudo-ONCV-proj/Mo_ONCV_PBE-1.0.upf
     MD5 check sum: 272e1c7cc7058c6684d95c2d78a865d8
     Pseudo is Norm-conserving, Zval = 14.0
     Generated using ONCVPSP code by D. R. Hamann
     Using radial grid of 1526 points,  6 beta functions with: 
                l(1) =   0
                l(2) =   0
                l(3) =   1
                l(4) =   1
                l(5) =   2
                l(6) =   2

     atomic species   valence    mass     pseudopotential
     Zn               20.00    65.39000     Zn( 1.00)
     O                 6.00    15.99940     O ( 1.00)
     Mo               14.00    95.94000     Mo( 1.00)

     Starting magnetic structure 
     atomic species   magnetization
     Zn              0.000
     O               0.000
     Mo              0.000

     No symmetry found


                                    s                        frac. trans.

      isym =  1     identity                                     

 cryst.   s( 1) = (     1          0          0      )
                  (     0          1          0      )
                  (     0          0          1      )

 cart.    s( 1) = (  1.0000000 -0.0000000  0.0000000 )
                  (  0.0000000  1.0000000  0.0000000 )
                  (  0.0000000  0.0000000  1.0000000 )


   Cartesian axes

     site n.     atom                  positions (alat units)
         1        Zn     tau(   1) = (   0.1248840   0.0722357   0.1987950  )
         2        Zn     tau(   2) = (   0.1250890   0.0721174   0.6004059  )
         3        Zn     tau(   3) = (   0.1247781   0.0722969   1.0016715  )
         4        Zn     tau(   4) = (  -0.0004526   0.2884138   0.1989904  )
         5        Zn     tau(   5) = (  -0.0011980   0.2879835   0.6001881  )
         6        Zn     tau(   6) = (  -0.0002568   0.2885269   1.0016658  )
         7        Zn     tau(   7) = (  -0.1250000   0.5050475   0.1987950  )
         8        Zn     tau(   8) = (  -0.1250000   0.5052841   0.6004059  )
         9        Zn     tau(   9) = (  -0.1250000   0.5049252   1.0016715  )
        10        Zn     tau(  10) = (  -0.2497729   0.7218189   0.1987837  )
        11        Zn     tau(  11) = (  -0.2490655   0.7222273   0.6009698  )
        12        Zn     tau(  12) = (  -0.2497932   0.7218071   1.0018110  )
        13        Zn     tau(  13) = (   0.3750000   0.0719066   0.1987837  )
        14        Zn     tau(  14) = (   0.3750000   0.0710897   0.6009698  )
        15        Zn     tau(  15) = (   0.3750000   0.0719301   1.0018110  )
        16        Zn     tau(  16) = (   0.2489614   0.2878847   0.1992100  )
        17        Zn     tau(  17) = (   0.2435369   0.2832825   0.6032470  )
        18        Zn     tau(  18) = (   0.2506753   0.2891094   1.0013360  )
        19        Zn     tau(  19) = (   0.1237962   0.5046772   0.1992100  )
        20        Zn     tau(  20) = (   0.1170983   0.5022805   0.6032470  )
        21        Zn     tau(  21) = (   0.1257137   0.5055491   1.0013360  )
        22        Zn     tau(  22) = (  -0.0002270   0.7218189   0.1987837  )
        23        Zn     tau(  23) = (  -0.0009344   0.7222273   0.6009698  )
        24        Zn     tau(  24) = (  -0.0002066   0.7218071   1.0018110  )
        25        Zn     tau(  25) = (   0.6251160   0.0722357   0.1987950  )
        26        Zn     tau(  26) = (   0.6249111   0.0721174   0.6004059  )
        27        Zn     tau(  27) = (   0.6252220   0.0722969   1.0016715  )
        28        Zn     tau(  28) = (   0.5010386   0.2878847   0.1992100  )
        29        Zn     tau(  29) = (   0.5064631   0.2832825   0.6032470  )
        30        Zn     tau(  30) = (   0.4993248   0.2891094   1.0013360  )
        31        Zn     tau(  31) = (   0.3750001   0.5051814   0.2004931  )
        32        Zn     tau(  32) = (   0.3750001   0.5051814   1.0031665  )
        33        Zn     tau(  33) = (   0.2498348   0.7229824   0.1992100  )
        34        Zn     tau(  34) = (   0.2485614   0.7299813   0.6032470  )
        35        Zn     tau(  35) = (   0.2500385   0.7208859   1.0013360  )
        36        Zn     tau(  36) = (   0.8750000   0.0726914   0.1989904  )
        37        Zn     tau(  37) = (   0.8750000   0.0735521   0.6001881  )
        38        Zn     tau(  38) = (   0.8750000   0.0724653   1.0016658  )
        39        Zn     tau(  39) = (   0.7504526   0.2884138   0.1989904  )
        40        Zn     tau(  40) = (   0.7511980   0.2879835   0.6001881  )
        41        Zn     tau(  41) = (   0.7502568   0.2885269   1.0016658  )
        42        Zn     tau(  42) = (   0.6262039   0.5046772   0.1992100  )
        43        Zn     tau(  43) = (   0.6329018   0.5022805   0.6032470  )
        44        Zn     tau(  44) = (   0.6242864   0.5055491   1.0013360  )
        45        Zn     tau(  45) = (   0.5001653   0.7229824   0.1992100  )
        46        Zn     tau(  46) = (   0.5014387   0.7299813   0.6032470  )
        47        Zn     tau(  47) = (   0.4999616   0.7208859   1.0013360  )
        48        Zn     tau(  48) = (  -0.0000245   0.1443517   1.2011361  )
        49        Zn     tau(  49) = (  -0.0000684   0.1443771   0.3990909  )
        50        Zn     tau(  50) = (  -0.0001009   0.1443958   0.8011350  )
        51        Zn     tau(  51) = (  -0.1250000   0.3608156   1.2011361  )
        52        Zn     tau(  52) = (  -0.1250000   0.3607649   0.3990909  )
        53        Zn     tau(  53) = (  -0.1250000   0.3607274   0.8011350  )
        54        Zn     tau(  54) = (  -0.2500072   0.5773395   1.2010265  )
        55        Zn     tau(  55) = (  -0.2486634   0.5780181   0.3986418  )
        56        Zn     tau(  56) = (  -0.2494406   0.5778324   0.8024030  )
        57        Zn     tau(  57) = (  -0.3750129   0.7938557   1.2010265  )
        58        Zn     tau(  58) = (  -0.3737533   0.7946802   0.3986418  )
        59        Zn     tau(  59) = (  -0.3743028   0.7940999   0.8024030  )
        60        Zn     tau(  60) = (   0.2499943   0.1443492   1.2010265  )
        61        Zn     tau(  61) = (   0.2499101   0.1428461   0.3986418  )
        62        Zn     tau(  62) = (   0.2501379   0.1436121   0.8024030  )
        63        Zn     tau(  63) = (   0.1250071   0.3608480   1.2010352  )
        64        Zn     tau(  64) = (   0.1237059   0.3600968   0.3990543  )
        65        Zn     tau(  65) = (   0.1241012   0.3603250   0.8032345  )
        66        Zn     tau(  66) = (   0.0000073   0.5773395   1.2010265  )
        67        Zn     tau(  67) = (  -0.0013366   0.5780181   0.3986418  )
        68        Zn     tau(  68) = (  -0.0005593   0.5778324   0.8024030  )
        69        Zn     tau(  69) = (  -0.1250000   0.7938566   1.2010657  )
        70        Zn     tau(  70) = (  -0.1250000   0.7938566   0.3990225  )
        71        Zn     tau(  71) = (  -0.1250000   0.7938566   0.8013708  )
        72        Zn     tau(  72) = (   0.5000057   0.1443492   1.2010265  )
        73        Zn     tau(  73) = (   0.5000899   0.1428461   0.3986418  )
        74        Zn     tau(  74) = (   0.4998621   0.1436121   0.8024030  )
        75        Zn     tau(  75) = (   0.3750000   0.3607172   0.0016607  )
        76        Zn     tau(  76) = (   0.3750000   0.3579017   0.3927764  )
        77        Zn     tau(  77) = (   0.3750000   0.3630743   0.7984601  )
        78        Zn     tau(  78) = (   0.2498902   0.5774136   0.0016607  )
        79        Zn     tau(  79) = (   0.2474519   0.5788214   0.3927764  )
        80        Zn     tau(  80) = (   0.2519316   0.5762350   0.7984601  )
        81        Zn     tau(  81) = (   0.1250129   0.7938557   1.2010265  )
        82        Zn     tau(  82) = (   0.1237533   0.7946802   0.3986418  )
        83        Zn     tau(  83) = (   0.1243028   0.7940999   0.8024030  )
        84        Zn     tau(  84) = (   0.7500245   0.1443517   1.2011361  )
        85        Zn     tau(  85) = (   0.7500684   0.1443771   0.3990909  )
        86        Zn     tau(  86) = (   0.7501009   0.1443958   0.8011350  )
        87        Zn     tau(  87) = (   0.6249929   0.3608480   1.2010352  )
        88        Zn     tau(  88) = (   0.6262941   0.3600968   0.3990543  )
        89        Zn     tau(  89) = (   0.6258988   0.3603250   0.8032345  )
        90        Zn     tau(  90) = (   0.5001097   0.5774136   0.0016607  )
        91        Zn     tau(  91) = (   0.5025481   0.5788214   0.3927764  )
        92        Zn     tau(  92) = (   0.4980684   0.5762350   0.7984601  )
        93        Zn     tau(  93) = (   0.3750000   0.7938484   1.2010352  )
        94        Zn     tau(  94) = (   0.3750000   0.7953508   0.3990543  )
        95        Zn     tau(  95) = (   0.3750000   0.7948944   0.8032345  )
        96        O      tau(  96) = (   0.1247958   0.0722867   0.3521688  )
        97        O      tau(  97) = (   0.1251920   0.0720579   0.7526373  )
        98        O      tau(  98) = (   0.1250104   0.0721628   1.1539232  )
        99        O      tau(  99) = (  -0.0001343   0.2885976   0.3523886  )
       100        O      tau( 100) = (   0.0004021   0.2889073   0.7523657  )
       101        O      tau( 101) = (   0.0001635   0.2887695   1.1539378  )
       102        O      tau( 102) = (  -0.1250000   0.5049456   0.3521688  )
       103        O      tau( 103) = (  -0.1250000   0.5054031   0.7526373  )
       104        O      tau( 104) = (  -0.1250000   0.5051935   1.1539232  )
       105        O      tau( 105) = (  -0.2499963   0.7216899   0.3521196  )
       106        O      tau( 106) = (  -0.2502929   0.7215186   0.7530099  )
       107        O      tau( 107) = (  -0.2500820   0.7216404   1.1539780  )
       108        O      tau( 108) = (   0.3750000   0.0721646   0.3521196  )
       109        O      tau( 109) = (   0.3750000   0.0725071   0.7530099  )
       110        O      tau( 110) = (   0.3750000   0.0722635   1.1539780  )
       111        O      tau( 111) = (   0.2497225   0.2885482   0.3539584  )
       112        O      tau( 112) = (   0.2506663   0.2899646   0.7533174  )
       113        O      tau( 113) = (   0.2507022   0.2892056   1.1537912  )
       114        O      tau( 114) = (   0.1247514   0.5050046   0.3539584  )
       115        O      tau( 115) = (   0.1264499   0.5051137   0.7533174  )
       116        O      tau( 116) = (   0.1258105   0.5055243   1.1537912  )
       117        O      tau( 117) = (  -0.0000036   0.7216899   0.3521196  )
       118        O      tau( 118) = (   0.0002930   0.7215186   0.7530099  )
       119        O      tau( 119) = (   0.0000821   0.7216404   1.1539780  )
       120        O      tau( 120) = (   0.6252042   0.0722867   0.3521688  )
       121        O      tau( 121) = (   0.6248080   0.0720579   0.7526373  )
       122        O      tau( 122) = (   0.6249896   0.0721628   1.1539232  )
       123        O      tau( 123) = (   0.5002775   0.2885482   0.3539584  )
       124        O      tau( 124) = (   0.4993338   0.2899646   0.7533174  )
       125        O      tau( 125) = (   0.4992979   0.2892056   1.1537912  )
       126        O      tau( 126) = (   0.3750001   0.5051814   0.3594347  )
       127        O      tau( 127) = (   0.3750001   0.5051814   1.1548646  )
       128        O      tau( 128) = (   0.2500289   0.7219915   0.3539584  )
       129        O      tau( 129) = (   0.2507837   0.7204660   0.7533174  )
       130        O      tau( 130) = (   0.2501084   0.7208144   1.1537912  )
       131        O      tau( 131) = (   0.8750000   0.0723239   0.3523886  )
       132        O      tau( 132) = (   0.8750000   0.0717045   0.7523657  )
       133        O      tau( 133) = (   0.8750000   0.0719800   1.1539378  )
       134        O      tau( 134) = (   0.7501343   0.2885976   0.3523886  )
       135        O      tau( 135) = (   0.7495979   0.2889073   0.7523657  )
       136        O      tau( 136) = (   0.7498365   0.2887695   1.1539378  )
       137        O      tau( 137) = (   0.6252487   0.5050046   0.3539584  )
       138        O      tau( 138) = (   0.6235502   0.5051137   0.7533174  )
       139        O      tau( 139) = (   0.6241896   0.5055243   1.1537912  )
       140        O      tau( 140) = (   0.4999713   0.7219915   0.3539584  )
       141        O      tau( 141) = (   0.4992164   0.7204660   0.7533174  )
       142        O      tau( 142) = (   0.4998917   0.7208144   1.1537912  )
       143        O      tau( 143) = (   0.0000260   0.1443226   0.1524675  )
       144        O      tau( 144) = (   0.0004524   0.1440764   0.5523136  )
       145        O      tau( 145) = (  -0.0000083   0.1443424   0.9531247  )
       146        O      tau( 146) = (  -0.1250000   0.3608739   0.1524675  )
       147        O      tau( 147) = (  -0.1250000   0.3613663   0.5523136  )
       148        O      tau( 148) = (  -0.1250000   0.3608343   0.9531247  )
       149        O      tau( 149) = (  -0.2500961   0.5773104   0.1525949  )
       150        O      tau( 150) = (  -0.2500544   0.5780127   0.5520186  )
       151        O      tau( 151) = (  -0.2504230   0.5772322   0.9538437  )
       152        O      tau( 152) = (  -0.3750825   0.7937933   0.1525949  )
       153        O      tau( 153) = (  -0.3744535   0.7934782   0.5520186  )
       154        O      tau( 154) = (  -0.3753137   0.7935493   0.9538437  )
       155        O      tau( 155) = (   0.2500135   0.1444407   0.1525949  )
       156        O      tau( 156) = (   0.2506009   0.1440535   0.5520186  )
       157        O      tau( 157) = (   0.2501093   0.1447629   0.9538437  )
       158        O      tau( 158) = (   0.1250035   0.3608459   0.1528834  )
       159        O      tau( 159) = (   0.1257103   0.3612540   0.5526041  )
       160        O      tau( 160) = (   0.1252805   0.3610058   0.9542483  )
       161        O      tau( 161) = (   0.0000961   0.5773104   0.1525949  )
       162        O      tau( 162) = (   0.0000545   0.5780127   0.5520186  )
       163        O      tau( 163) = (   0.0004230   0.5772322   0.9538437  )
       164        O      tau( 164) = (  -0.1250000   0.7938566   0.1523509  )
       165        O      tau( 165) = (  -0.1250000   0.7938566   0.5521011  )
       166        O      tau( 166) = (  -0.1250000   0.7938566   0.9533347  )
       167        O      tau( 167) = (   0.4999865   0.1444407   0.1525949  )
       168        O      tau( 168) = (   0.4993991   0.1440535   0.5520186  )
       169        O      tau( 169) = (   0.4998907   0.1447629   0.9538437  )
       170        O      tau( 170) = (   0.3750000   0.3611225   0.1556514  )
       171        O      tau( 171) = (   0.3750000   0.3650827   0.5588865  )
       172        O      tau( 172) = (   0.3750000   0.3627542   0.9492347  )
       173        O      tau( 173) = (   0.2502413   0.5772110   0.1556514  )
       174        O      tau( 174) = (   0.2536709   0.5752309   0.5588865  )
       175        O      tau( 175) = (   0.2516544   0.5763951   0.9492347  )
       176        O      tau( 176) = (   0.1250826   0.7937933   0.1525949  )
       177        O      tau( 177) = (   0.1244535   0.7934782   0.5520186  )
       178        O      tau( 178) = (   0.1253137   0.7935493   0.9538437  )
       179        O      tau( 179) = (   0.7499740   0.1443226   0.1524675  )
       180        O      tau( 180) = (   0.7495476   0.1440764   0.5523136  )
       181        O      tau( 181) = (   0.7500083   0.1443424   0.9531247  )
       182        O      tau( 182) = (   0.6249965   0.3608459   0.1528834  )
       183        O      tau( 183) = (   0.6242897   0.3612540   0.5526041  )
       184        O      tau( 184) = (   0.6247195   0.3610058   0.9542483  )
       185        O      tau( 185) = (   0.4997587   0.5772110   0.1556514  )
       186        O      tau( 186) = (   0.4963291   0.5752309   0.5588865  )
       187        O      tau( 187) = (   0.4983456   0.5763951   0.9492347  )
       188        O      tau( 188) = (   0.3750000   0.7938525   0.1528834  )
       189        O      tau( 189) = (   0.3750000   0.7930364   0.5526041  )
       190        O      tau( 190) = (   0.3750000   0.7935328   0.9542483  )
       191        Mo     tau( 191) = (   0.3750001   0.5051814   0.5974195  )

   Crystallographic axes

     site n.     atom                  positions (cryst. coord.)
         1        Zn     tau(   1) = (  0.1665894  0.0834106  0.1654629  )
         2        Zn     tau(   2) = (  0.1667260  0.0832740  0.4997353  )
         3        Zn     tau(   3) = (  0.1665187  0.0834813  0.8337203  )
         4        Zn     tau(   4) = (  0.1660632  0.3330316  0.1656255  )
         5        Zn     tau(   5) = (  0.1650694  0.3325347  0.4995540  )
         6        Zn     tau(   6) = (  0.1663243  0.3331621  0.8337156  )
         7        Zn     tau(   7) = (  0.1665894  0.5831787  0.1654629  )
         8        Zn     tau(   8) = (  0.1667260  0.5834519  0.4997353  )
         9        Zn     tau(   9) = (  0.1665187  0.5830374  0.8337203  )
        10        Zn     tau(  10) = (  0.1669694  0.8334847  0.1654534  )
        11        Zn     tau(  11) = (  0.1679126  0.8339563  0.5002046  )
        12        Zn     tau(  12) = (  0.1669423  0.8334711  0.8338365  )
        13        Zn     tau(  13) = (  0.4165153  0.0830306  0.1654534  )
        14        Zn     tau(  14) = (  0.4160437  0.0820874  0.5002046  )
        15        Zn     tau(  15) = (  0.4165289  0.0830577  0.8338365  )
        16        Zn     tau(  16) = (  0.4151717  0.3324206  0.1658083  )
        17        Zn     tau(  17) = (  0.4070902  0.3271065  0.5021000  )
        18        Zn     tau(  18) = (  0.4175926  0.3338348  0.8334411  )
        19        Zn     tau(  19) = (  0.4151717  0.5827510  0.1658083  )
        20        Zn     tau(  20) = (  0.4070902  0.5799837  0.5021000  )
        21        Zn     tau(  21) = (  0.4175926  0.5837578  0.8334411  )
        22        Zn     tau(  22) = (  0.4165153  0.8334847  0.1654534  )
        23        Zn     tau(  23) = (  0.4160437  0.8339563  0.5002046  )
        24        Zn     tau(  24) = (  0.4165289  0.8334711  0.8338365  )
        25        Zn     tau(  25) = (  0.6668213  0.0834106  0.1654629  )
        26        Zn     tau(  26) = (  0.6665481  0.0832740  0.4997353  )
        27        Zn     tau(  27) = (  0.6669626  0.0834813  0.8337203  )
        28        Zn     tau(  28) = (  0.6672490  0.3324206  0.1658083  )
        29        Zn     tau(  29) = (  0.6700163  0.3271065  0.5021000  )
        30        Zn     tau(  30) = (  0.6662422  0.3338348  0.8334411  )
        31        Zn     tau(  31) = (  0.6666667  0.5833333  0.1668763  )
        32        Zn     tau(  32) = (  0.6666667  0.5833333  0.8349646  )
        33        Zn     tau(  33) = (  0.6672490  0.8348283  0.1658083  )
        34        Zn     tau(  34) = (  0.6700163  0.8429098  0.5021000  )
        35        Zn     tau(  35) = (  0.6662422  0.8324074  0.8334411  )
        36        Zn     tau(  36) = (  0.9169684  0.0839368  0.1656255  )
        37        Zn     tau(  37) = (  0.9174653  0.0849307  0.4995540  )
        38        Zn     tau(  38) = (  0.9168379  0.0836757  0.8337156  )
        39        Zn     tau(  39) = (  0.9169684  0.3330316  0.1656255  )
        40        Zn     tau(  40) = (  0.9174653  0.3325347  0.4995540  )
        41        Zn     tau(  41) = (  0.9168379  0.3331621  0.8337156  )
        42        Zn     tau(  42) = (  0.9175794  0.5827510  0.1658083  )
        43        Zn     tau(  43) = (  0.9228936  0.5799837  0.5021000  )
        44        Zn     tau(  44) = (  0.9161653  0.5837578  0.8334411  )
        45        Zn     tau(  45) = (  0.9175794  0.8348283  0.1658083  )
        46        Zn     tau(  46) = (  0.9228936  0.8429098  0.5021000  )
        47        Zn     tau(  47) = (  0.9161653  0.8324074  0.8334411  )
        48        Zn     tau(  48) = (  0.0833170  0.1666830  0.9997405  )
        49        Zn     tau(  49) = (  0.0832877  0.1667123  0.3321750  )
        50        Zn     tau(  50) = (  0.0832661  0.1667339  0.6668080  )
        51        Zn     tau(  51) = (  0.0833170  0.4166340  0.9997405  )
        52        Zn     tau(  52) = (  0.0832877  0.4165755  0.3321750  )
        53        Zn     tau(  53) = (  0.0832661  0.4165321  0.6668080  )
        54        Zn     tau(  54) = (  0.0833199  0.6666543  0.9996493  )
        55        Zn     tau(  55) = (  0.0850555  0.6674379  0.3318011  )
        56        Zn     tau(  56) = (  0.0841710  0.6672234  0.6678634  )
        57        Zn     tau(  57) = (  0.0833199  0.9166657  0.9996493  )
        58        Zn     tau(  58) = (  0.0850555  0.9176177  0.3318011  )
        59        Zn     tau(  59) = (  0.0841710  0.9169477  0.6678634  )
        60        Zn     tau(  60) = (  0.3333344  0.1666801  0.9996493  )
        61        Zn     tau(  61) = (  0.3323823  0.1649445  0.3318011  )
        62        Zn     tau(  62) = (  0.3330523  0.1658290  0.6678634  )
        63        Zn     tau(  63) = (  0.3333428  0.4166714  0.9996566  )
        64        Zn     tau(  64) = (  0.3316079  0.4158040  0.3321445  )
        65        Zn     tau(  65) = (  0.3321349  0.4160675  0.6685555  )
        66        Zn     tau(  66) = (  0.3333344  0.6666543  0.9996493  )
        67        Zn     tau(  67) = (  0.3323823  0.6674379  0.3318011  )
        68        Zn     tau(  68) = (  0.3330523  0.6672234  0.6678634  )
        69        Zn     tau(  69) = (  0.3333333  0.9166667  0.9996819  )
        70        Zn     tau(  70) = (  0.3333333  0.9166667  0.3321181  )
        71        Zn     tau(  71) = (  0.3333333  0.9166667  0.6670043  )
        72        Zn     tau(  72) = (  0.5833457  0.1666801  0.9996493  )
        73        Zn     tau(  73) = (  0.5825621  0.1649445  0.3318011  )
        74        Zn     tau(  74) = (  0.5827766  0.1658290  0.6678634  )
        75        Zn     tau(  75) = (  0.5832601  0.4165204  0.0013823  )
        76        Zn     tau(  76) = (  0.5816346  0.4132693  0.3269192  )
        77        Zn     tau(  77) = (  0.5846211  0.4192422  0.6645816  )
        78        Zn     tau(  78) = (  0.5832601  0.6667399  0.0013823  )
        79        Zn     tau(  79) = (  0.5816346  0.6683654  0.3269192  )
        80        Zn     tau(  80) = (  0.5846211  0.6653789  0.6645816  )
        81        Zn     tau(  81) = (  0.5833457  0.9166657  0.9996493  )
        82        Zn     tau(  82) = (  0.5825621  0.9176177  0.3318011  )
        83        Zn     tau(  83) = (  0.5827766  0.9169477  0.6678634  )
        84        Zn     tau(  84) = (  0.8333660  0.1666830  0.9997405  )
        85        Zn     tau(  85) = (  0.8334245  0.1667123  0.3321750  )
        86        Zn     tau(  86) = (  0.8334679  0.1667339  0.6668080  )
        87        Zn     tau(  87) = (  0.8333286  0.4166714  0.9996566  )
        88        Zn     tau(  88) = (  0.8341960  0.4158040  0.3321445  )
        89        Zn     tau(  89) = (  0.8339325  0.4160675  0.6685555  )
        90        Zn     tau(  90) = (  0.8334796  0.6667399  0.0013823  )
        91        Zn     tau(  91) = (  0.8367307  0.6683654  0.3269192  )
        92        Zn     tau(  92) = (  0.8307578  0.6653789  0.6645816  )
        93        Zn     tau(  93) = (  0.8333286  0.9166573  0.9996566  )
        94        Zn     tau(  94) = (  0.8341960  0.9183921  0.3321445  )
        95        Zn     tau(  95) = (  0.8339325  0.9178651  0.6685555  )
        96        O      tau(  96) = (  0.1665305  0.0834695  0.2931203  )
        97        O      tau(  97) = (  0.1667947  0.0832053  0.6264419  )
        98        O      tau(  98) = (  0.1666736  0.0833264  0.9604439  )
        99        O      tau(  99) = (  0.1664876  0.3332438  0.2933033  )
       100        O      tau( 100) = (  0.1672028  0.3336014  0.6262158  )
       101        O      tau( 101) = (  0.1668847  0.3334424  0.9604560  )
       102        O      tau( 102) = (  0.1665305  0.5830610  0.2931203  )
       103        O      tau( 103) = (  0.1667947  0.5835893  0.6264419  )
       104        O      tau( 104) = (  0.1666736  0.5833472  0.9604439  )
       105        O      tau( 105) = (  0.1666715  0.8333357  0.2930794  )
       106        O      tau( 106) = (  0.1662761  0.8331380  0.6267521  )
       107        O      tau( 107) = (  0.1665573  0.8332786  0.9604895  )
       108        O      tau( 108) = (  0.4166643  0.0833285  0.2930794  )
       109        O      tau( 109) = (  0.4168620  0.0837239  0.6267521  )
       110        O      tau( 110) = (  0.4167214  0.0834427  0.9604895  )
       111        O      tau( 111) = (  0.4163159  0.3331868  0.2946099  )
       112        O      tau( 112) = (  0.4180774  0.3348223  0.6270080  )
       113        O      tau( 113) = (  0.4176751  0.3339459  0.9603340  )
       114        O      tau( 114) = (  0.4163159  0.5831291  0.2946099  )
       115        O      tau( 115) = (  0.4180774  0.5832551  0.6270080  )
       116        O      tau( 116) = (  0.4176751  0.5837292  0.9603340  )
       117        O      tau( 117) = (  0.4166643  0.8333357  0.2930794  )
       118        O      tau( 118) = (  0.4168620  0.8331380  0.6267521  )
       119        O      tau( 119) = (  0.4167214  0.8332786  0.9604895  )
       120        O      tau( 120) = (  0.6669390  0.0834695  0.2931203  )
       121        O      tau( 121) = (  0.6664107  0.0832053  0.6264419  )
       122        O      tau( 122) = (  0.6666528  0.0833264  0.9604439  )
       123        O      tau( 123) = (  0.6668709  0.3331868  0.2946099  )
       124        O      tau( 124) = (  0.6667449  0.3348223  0.6270080  )
       125        O      tau( 125) = (  0.6662708  0.3339459  0.9603340  )
       126        O      tau( 126) = (  0.6666667  0.5833333  0.2991679  )
       127        O      tau( 127) = (  0.6666667  0.5833333  0.9612274  )
       128        O      tau( 128) = (  0.6668709  0.8336841  0.2946099  )
       129        O      tau( 129) = (  0.6667449  0.8319226  0.6270080  )
       130        O      tau( 130) = (  0.6662708  0.8323249  0.9603340  )
       131        O      tau( 131) = (  0.9167562  0.0835124  0.2933033  )
       132        O      tau( 132) = (  0.9163986  0.0827972  0.6262158  )
       133        O      tau( 133) = (  0.9165577  0.0831153  0.9604560  )
       134        O      tau( 134) = (  0.9167562  0.3332438  0.2933033  )
       135        O      tau( 135) = (  0.9163986  0.3336014  0.6262158  )
       136        O      tau( 136) = (  0.9165577  0.3334424  0.9604560  )
       137        O      tau( 137) = (  0.9168133  0.5831291  0.2946099  )
       138        O      tau( 138) = (  0.9151777  0.5832551  0.6270080  )
       139        O      tau( 139) = (  0.9160541  0.5837292  0.9603340  )
       140        O      tau( 140) = (  0.9168133  0.8336841  0.2946099  )
       141        O      tau( 141) = (  0.9151777  0.8319226  0.6270080  )
       142        O      tau( 142) = (  0.9160541  0.8323249  0.9603340  )
       143        O      tau( 143) = (  0.0833507  0.1666493  0.1269032  )
       144        O      tau( 144) = (  0.0836349  0.1663651  0.4597067  )
       145        O      tau( 145) = (  0.0833278  0.1666722  0.7933135  )
       146        O      tau( 146) = (  0.0833507  0.4167014  0.1269032  )
       147        O      tau( 147) = (  0.0836349  0.4172699  0.4597067  )
       148        O      tau( 148) = (  0.0833278  0.4166556  0.7933135  )
       149        O      tau( 149) = (  0.0832143  0.6666207  0.1270091  )
       150        O      tau( 150) = (  0.0836613  0.6674316  0.4594612  )
       151        O      tau( 151) = (  0.0828422  0.6665304  0.7939119  )
       152        O      tau( 152) = (  0.0832143  0.9165936  0.1270091  )
       153        O      tau( 153) = (  0.0836613  0.9162298  0.4594612  )
       154        O      tau( 154) = (  0.0828422  0.9163118  0.7939119  )
       155        O      tau( 155) = (  0.3334064  0.1667858  0.1270091  )
       156        O      tau( 156) = (  0.3337703  0.1663387  0.4594612  )
       157        O      tau( 157) = (  0.3336882  0.1671578  0.7939119  )
       158        O      tau( 158) = (  0.3333380  0.4166690  0.1272493  )
       159        O      tau( 159) = (  0.3342804  0.4171402  0.4599485  )
       160        O      tau( 160) = (  0.3337073  0.4168536  0.7942486  )
       161        O      tau( 161) = (  0.3334064  0.6666207  0.1270091  )
       162        O      tau( 162) = (  0.3337703  0.6674316  0.4594612  )
       163        O      tau( 163) = (  0.3336882  0.6665304  0.7939119  )
       164        O      tau( 164) = (  0.3333333  0.9166667  0.1268061  )
       165        O      tau( 165) = (  0.3333333  0.9166667  0.4595298  )
       166        O      tau( 166) = (  0.3333333  0.9166667  0.7934882  )
       167        O      tau( 167) = (  0.5833793  0.1667858  0.1270091  )
       168        O      tau( 168) = (  0.5825684  0.1663387  0.4594612  )
       169        O      tau( 169) = (  0.5834696  0.1671578  0.7939119  )
       170        O      tau( 170) = (  0.5834942  0.4169884  0.1295532  )
       171        O      tau( 171) = (  0.5857806  0.4215612  0.4651775  )
       172        O      tau( 172) = (  0.5844362  0.4188725  0.7900757  )
       173        O      tau( 173) = (  0.5834942  0.6665058  0.1295532  )
       174        O      tau( 174) = (  0.5857806  0.6642194  0.4651775  )
       175        O      tau( 175) = (  0.5844362  0.6655638  0.7900757  )
       176        O      tau( 176) = (  0.5833793  0.9165936  0.1270091  )
       177        O      tau( 177) = (  0.5825684  0.9162298  0.4594612  )
       178        O      tau( 178) = (  0.5834696  0.9163118  0.7939119  )
       179        O      tau( 179) = (  0.8332986  0.1666493  0.1269032  )
       180        O      tau( 180) = (  0.8327301  0.1663651  0.4597067  )
       181        O      tau( 181) = (  0.8333444  0.1666722  0.7933135  )
       182        O      tau( 182) = (  0.8333310  0.4166690  0.1272493  )
       183        O      tau( 183) = (  0.8328598  0.4171402  0.4599485  )
       184        O      tau( 184) = (  0.8331464  0.4168536  0.7942486  )
       185        O      tau( 185) = (  0.8330116  0.6665058  0.1295532  )
       186        O      tau( 186) = (  0.8284388  0.6642194  0.4651775  )
       187        O      tau( 187) = (  0.8311275  0.6655638  0.7900757  )
       188        O      tau( 188) = (  0.8333310  0.9166620  0.1272493  )
       189        O      tau( 189) = (  0.8328598  0.9157196  0.4599485  )
       190        O      tau( 190) = (  0.8331464  0.9162928  0.7942486  )
       191        Mo     tau( 191) = (  0.6666667  0.5833333  0.4972496  )

     number of k points=     1
                       cart. coord. in units 2pi/alat
        k(    1) = (   0.0000000   0.0000000   0.0000000), wk =   1.0000000

                       cryst. coord.
        k(    1) = (   0.0000000   0.0000000   0.0000000), wk =   1.0000000

     Dense  grid:   483727 G-vectors     FFT dimensions: ( 125, 125, 150)

     Dynamical RAM for                 wfc:      40.35 MB

     Dynamical RAM for     wfc (w. buffer):     121.06 MB

     Dynamical RAM for                 EXX:     159.31 MB

     Dynamical RAM for           str. fact:       0.69 MB

     Dynamical RAM for           local pot:       0.00 MB

     Dynamical RAM for          nlocal pot:      71.71 MB

     Dynamical RAM for                qrad:       3.73 MB

     Dynamical RAM for          rho,v,vnew:       4.96 MB

     Dynamical RAM for               rhoin:       1.65 MB

     Dynamical RAM for            rho*nmix:       7.38 MB

     Dynamical RAM for           G-vectors:       0.98 MB

     Dynamical RAM for          h,s,v(r/c):     179.44 MB

     Dynamical RAM for          <psi|beta>:      26.57 MB

     Dynamical RAM for                 psi:      80.71 MB

     Dynamical RAM for                hpsi:      80.71 MB

     Dynamical RAM for      wfcinit/wfcrot:     125.58 MB

     Estimated static dynamical RAM per process >     368.60 MB

     Estimated max dynamical RAM per process >     743.41 MB

     Estimated total dynamical RAM >     185.85 GB
     EXX: ACE will be initialized later
     Generating pointlists ...
     new r_m :   0.0612 (alat units)  1.5028 (a.u.) for type    1
     new r_m :   0.0599 (alat units)  1.4718 (a.u.) for type    2
     new r_m :   0.0599 (alat units)  1.4718 (a.u.) for type    3

     Initial potential from superposition of free atoms

     starting charge    2483.9859, renormalised to    2482.0000
     Starting wfcs are 1340 randomized atomic wfcs +   60 random wfcs

     total cpu time spent up to now is        8.6 secs

     Self-consistent Calculation

     iteration #  1     ecut=    60.00 Ry     beta= 0.30
     Davidson diagonalization with overlap

---- Real-time Memory Report at c_bands before calling an iterative solver
           528 MiB given to the printing process from OS
             0 MiB allocation reported by mallinfo(arena+hblkhd)
        467705 MiB available memory on the node where the printing process lives
------------------
     ethr =  1.00E-02,  avg # of iterations =  4.0

     total cpu time spent up to now is       45.2 secs

     total energy              =  -41202.42643996 Ry
     estimated scf accuracy    <      40.17879738 Ry

     total magnetization       =     2.00 Bohr mag/cell
     absolute magnetization    =     2.01 Bohr mag/cell

     iteration #  2     ecut=    60.00 Ry     beta= 0.30
     Davidson diagonalization with overlap

---- Real-time Memory Report at c_bands before calling an iterative solver
           831 MiB given to the printing process from OS
             0 MiB allocation reported by mallinfo(arena+hblkhd)
        466223 MiB available memory on the node where the printing process lives
------------------
     ethr =  1.62E-03,  avg # of iterations =  2.0

     total cpu time spent up to now is       76.6 secs

     total energy              =  -41204.86896176 Ry
     estimated scf accuracy    <      14.95223658 Ry

     total magnetization       =     2.00 Bohr mag/cell
     absolute magnetization    =     2.02 Bohr mag/cell

     iteration #  3     ecut=    60.00 Ry     beta= 0.30
     Davidson diagonalization with overlap

---- Real-time Memory Report at c_bands before calling an iterative solver
           863 MiB given to the printing process from OS
             0 MiB allocation reported by mallinfo(arena+hblkhd)
        464740 MiB available memory on the node where the printing process lives
------------------
     ethr =  6.02E-04,  avg # of iterations =  9.5

     total cpu time spent up to now is      144.0 secs

     total energy              =  -41209.10044224 Ry
     estimated scf accuracy    <      13.54609883 Ry

     total magnetization       =     2.00 Bohr mag/cell
     absolute magnetization    =     2.02 Bohr mag/cell

     iteration #  4     ecut=    60.00 Ry     beta= 0.30
     Davidson diagonalization with overlap

---- Real-time Memory Report at c_bands before calling an iterative solver
           863 MiB given to the printing process from OS
             0 MiB allocation reported by mallinfo(arena+hblkhd)
        464754 MiB available memory on the node where the printing process lives
------------------
     ethr =  5.46E-04,  avg # of iterations =  7.5

     total cpu time spent up to now is      200.2 secs

     total energy              =  -41209.09025852 Ry
     estimated scf accuracy    <       3.86696362 Ry

     total magnetization       =     2.00 Bohr mag/cell
     absolute magnetization    =     2.03 Bohr mag/cell

     iteration #  5     ecut=    60.00 Ry     beta= 0.30
     Davidson diagonalization with overlap

---- Real-time Memory Report at c_bands before calling an iterative solver
           865 MiB given to the printing process from OS
             0 MiB allocation reported by mallinfo(arena+hblkhd)
        464676 MiB available memory on the node where the printing process lives
------------------
     ethr =  1.56E-04,  avg # of iterations =  6.0

     total cpu time spent up to now is      247.5 secs

     total energy              =  -41209.08309475 Ry
     estimated scf accuracy    <       0.67620860 Ry

     total magnetization       =     2.00 Bohr mag/cell
     absolute magnetization    =     2.04 Bohr mag/cell

     iteration #  6     ecut=    60.00 Ry     beta= 0.30
     Davidson diagonalization with overlap

---- Real-time Memory Report at c_bands before calling an iterative solver
           865 MiB given to the printing process from OS
             0 MiB allocation reported by mallinfo(arena+hblkhd)
        464631 MiB available memory on the node where the printing process lives
------------------
     ethr =  2.72E-05,  avg # of iterations =  9.0

     total cpu time spent up to now is      325.4 secs

     total energy              =  -41209.03649749 Ry
     estimated scf accuracy    <       3.88127545 Ry

     total magnetization       =     2.00 Bohr mag/cell
     absolute magnetization    =     2.15 Bohr mag/cell

     iteration #  7     ecut=    60.00 Ry     beta= 0.30
     Davidson diagonalization with overlap

---- Real-time Memory Report at c_bands before calling an iterative solver
           865 MiB given to the printing process from OS
             0 MiB allocation reported by mallinfo(arena+hblkhd)
        464708 MiB available memory on the node where the printing process lives
------------------
     ethr =  2.72E-05,  avg # of iterations =  7.5

     total cpu time spent up to now is      378.8 secs

     total energy              =  -41209.21212362 Ry
     estimated scf accuracy    <       0.10105315 Ry

     total magnetization       =     2.00 Bohr mag/cell
     absolute magnetization    =     2.14 Bohr mag/cell

     iteration #  8     ecut=    60.00 Ry     beta= 0.30
     Davidson diagonalization with overlap

---- Real-time Memory Report at c_bands before calling an iterative solver
           866 MiB given to the printing process from OS
             0 MiB allocation reported by mallinfo(arena+hblkhd)
        464640 MiB available memory on the node where the printing process lives
------------------
     c_bands:  3 eigenvalues not converged
     c_bands:  3 eigenvalues not converged
     ethr =  4.07E-06,  avg # of iterations = 20.0

     total cpu time spent up to now is      491.5 secs

     total energy              =  -41209.21961152 Ry
     estimated scf accuracy    <       0.04222121 Ry

     total magnetization       =     2.00 Bohr mag/cell
     absolute magnetization    =     2.15 Bohr mag/cell

     iteration #  9     ecut=    60.00 Ry     beta= 0.30
     Davidson diagonalization with overlap

---- Real-time Memory Report at c_bands before calling an iterative solver
           867 MiB given to the printing process from OS
             0 MiB allocation reported by mallinfo(arena+hblkhd)
        464681 MiB available memory on the node where the printing process lives
------------------
     ethr =  1.70E-06,  avg # of iterations = 17.5

     total cpu time spent up to now is      597.2 secs

     total energy              =  -41209.22932129 Ry
     estimated scf accuracy    <       0.00888797 Ry

     total magnetization       =     2.00 Bohr mag/cell
     absolute magnetization    =     2.16 Bohr mag/cell

     iteration # 10     ecut=    60.00 Ry     beta= 0.30
     Davidson diagonalization with overlap

---- Real-time Memory Report at c_bands before calling an iterative solver
           867 MiB given to the printing process from OS
             0 MiB allocation reported by mallinfo(arena+hblkhd)
        464637 MiB available memory on the node where the printing process lives
------------------
     ethr =  3.58E-07,  avg # of iterations = 14.0

     total cpu time spent up to now is      694.7 secs

     total energy              =  -41209.23341564 Ry
     estimated scf accuracy    <       0.00377786 Ry

     total magnetization       =     2.00 Bohr mag/cell
     absolute magnetization    =     2.20 Bohr mag/cell

     iteration # 11     ecut=    60.00 Ry     beta= 0.30
     Davidson diagonalization with overlap

---- Real-time Memory Report at c_bands before calling an iterative solver
           867 MiB given to the printing process from OS
             0 MiB allocation reported by mallinfo(arena+hblkhd)
        464534 MiB available memory on the node where the printing process lives
------------------
     ethr =  1.52E-07,  avg # of iterations =  3.0

     Magnetic moment per site  (integrated on atomic sphere of radius R)
     atom   1 (R=0.061)  charge= 17.3095  magn= -0.0001
     atom   2 (R=0.061)  charge= 17.3081  magn= -0.0001
     atom   3 (R=0.061)  charge= 17.3082  magn= -0.0001
     atom   4 (R=0.061)  charge= 17.3091  magn= -0.0001
     atom   5 (R=0.061)  charge= 17.3074  magn= -0.0000
     atom   6 (R=0.061)  charge= 17.3076  magn= -0.0001
     atom   7 (R=0.061)  charge= 17.3089  magn= -0.0001
     atom   8 (R=0.061)  charge= 17.3062  magn= -0.0001
     atom   9 (R=0.061)  charge= 17.3066  magn= -0.0001
     atom  10 (R=0.061)  charge= 17.3090  magn= -0.0001
     atom  11 (R=0.061)  charge= 17.3080  magn= -0.0001
     atom  12 (R=0.061)  charge= 17.3077  magn= -0.0001
     atom  13 (R=0.061)  charge= 17.3093  magn= -0.0001
     atom  14 (R=0.061)  charge= 17.3081  magn= -0.0001
     atom  15 (R=0.061)  charge= 17.3082  magn= -0.0001
     atom  16 (R=0.061)  charge= 17.3088  magn= -0.0000
     atom  17 (R=0.061)  charge= 17.3061  magn=  0.0020
     atom  18 (R=0.061)  charge= 17.3067  magn= -0.0002
     atom  19 (R=0.061)  charge= 17.3079  magn= -0.0000
     atom  20 (R=0.061)  charge= 17.3063  magn=  0.0020
     atom  21 (R=0.061)  charge= 17.3055  magn= -0.0002
     atom  22 (R=0.061)  charge= 17.3089  magn= -0.0001
     atom  23 (R=0.061)  charge= 17.3080  magn= -0.0001
     atom  24 (R=0.061)  charge= 17.3073  magn= -0.0001
     atom  25 (R=0.061)  charge= 17.3094  magn= -0.0001
     atom  26 (R=0.061)  charge= 17.3076  magn= -0.0001
     atom  27 (R=0.061)  charge= 17.3080  magn= -0.0001
     atom  28 (R=0.061)  charge= 17.3089  magn= -0.0000
     atom  29 (R=0.061)  charge= 17.3063  magn=  0.0020
     atom  30 (R=0.061)  charge= 17.3073  magn= -0.0002
     atom  31 (R=0.061)  charge= 17.3068  magn= -0.0001
     atom  32 (R=0.061)  charge= 17.3080  magn=  0.0000
     atom  33 (R=0.061)  charge= 17.3086  magn= -0.0000
     atom  34 (R=0.061)  charge= 17.3066  magn=  0.0020
     atom  35 (R=0.061)  charge= 17.3057  magn= -0.0002
     atom  36 (R=0.061)  charge= 17.3093  magn= -0.0001
     atom  37 (R=0.061)  charge= 17.3071  magn= -0.0000
     atom  38 (R=0.061)  charge= 17.3084  magn= -0.0001
     atom  39 (R=0.061)  charge= 17.3091  magn= -0.0001
     atom  40 (R=0.061)  charge= 17.3073  magn= -0.0000
     atom  41 (R=0.061)  charge= 17.3080  magn= -0.0001
     atom  42 (R=0.061)  charge= 17.3081  magn= -0.0000
     atom  43 (R=0.061)  charge= 17.3063  magn=  0.0020
     atom  44 (R=0.061)  charge= 17.3070  magn= -0.0002
     atom  45 (R=0.061)  charge= 17.3092  magn= -0.0000
     atom  46 (R=0.061)  charge= 17.3062  magn=  0.0020
     atom  47 (R=0.061)  charge= 17.3071  magn= -0.0002
     atom  48 (R=0.061)  charge= 17.3093  magn= -0.0001
     atom  49 (R=0.061)  charge= 17.3093  magn= -0.0001
     atom  50 (R=0.061)  charge= 17.3077  magn= -0.0001
     atom  51 (R=0.061)  charge= 17.3089  magn= -0.0001
     atom  52 (R=0.061)  charge= 17.3093  magn= -0.0001
     atom  53 (R=0.061)  charge= 17.3073  magn= -0.0001
     atom  54 (R=0.061)  charge= 17.3083  magn= -0.0001
     atom  55 (R=0.061)  charge= 17.3101  magn= -0.0001
     atom  56 (R=0.061)  charge= 17.3065  magn=  0.0003
     atom  57 (R=0.061)  charge= 17.3087  magn= -0.0001
     atom  58 (R=0.061)  charge= 17.3096  magn= -0.0001
     atom  59 (R=0.061)  charge= 17.3065  magn=  0.0002
     atom  60 (R=0.061)  charge= 17.3077  magn= -0.0001
     atom  61 (R=0.061)  charge= 17.3096  magn= -0.0001
     atom  62 (R=0.061)  charge= 17.3064  magn=  0.0002
     atom  63 (R=0.061)  charge= 17.3078  magn= -0.0001
     atom  64 (R=0.061)  charge= 17.3097  magn=  0.0000
     atom  65 (R=0.061)  charge= 17.3080  magn=  0.0001
     atom  66 (R=0.061)  charge= 17.3094  magn= -0.0001
     atom  67 (R=0.061)  charge= 17.3098  magn= -0.0001
     atom  68 (R=0.061)  charge= 17.3070  magn=  0.0003
     atom  69 (R=0.061)  charge= 17.3090  magn= -0.0001
     atom  70 (R=0.061)  charge= 17.3089  magn= -0.0001
     atom  71 (R=0.061)  charge= 17.3074  magn= -0.0001
     atom  72 (R=0.061)  charge= 17.3069  magn= -0.0001
     atom  73 (R=0.061)  charge= 17.3099  magn= -0.0001
     atom  74 (R=0.061)  charge= 17.3060  magn=  0.0003
     atom  75 (R=0.061)  charge= 17.3074  magn= -0.0001
     atom  76 (R=0.061)  charge= 17.3062  magn=  0.0032
     atom  77 (R=0.061)  charge= 17.2858  magn=  0.0029
     atom  78 (R=0.061)  charge= 17.3078  magn= -0.0001
     atom  79 (R=0.061)  charge= 17.3068  magn=  0.0033
     atom  80 (R=0.061)  charge= 17.2859  magn=  0.0029
     atom  81 (R=0.061)  charge= 17.3083  magn= -0.0001
     atom  82 (R=0.061)  charge= 17.3097  magn= -0.0001
     atom  83 (R=0.061)  charge= 17.3066  magn=  0.0003
     atom  84 (R=0.061)  charge= 17.3083  magn= -0.0001
     atom  85 (R=0.061)  charge= 17.3090  magn= -0.0001
     atom  86 (R=0.061)  charge= 17.3067  magn= -0.0001
     atom  87 (R=0.061)  charge= 17.3065  magn= -0.0001
     atom  88 (R=0.061)  charge= 17.3094  magn=  0.0000
     atom  89 (R=0.061)  charge= 17.3083  magn=  0.0001
     atom  90 (R=0.061)  charge= 17.3077  magn= -0.0001
     atom  91 (R=0.061)  charge= 17.3069  magn=  0.0032
     atom  92 (R=0.061)  charge= 17.2859  magn=  0.0028
     atom  93 (R=0.061)  charge= 17.3082  magn= -0.0001
     atom  94 (R=0.061)  charge= 17.3101  magn=  0.0000
     atom  95 (R=0.061)  charge= 17.3085  magn=  0.0001
     atom  96 (R=0.060)  charge=  5.2235  magn= -0.0001
     atom  97 (R=0.060)  charge=  5.2142  magn=  0.0011
     atom  98 (R=0.060)  charge=  5.2217  magn=  0.0002
     atom  99 (R=0.060)  charge=  5.2236  magn= -0.0001
     atom 100 (R=0.060)  charge=  5.2172  magn=  0.0001
     atom 101 (R=0.060)  charge=  5.2216  magn=  0.0002
     atom 102 (R=0.060)  charge=  5.2237  magn= -0.0001
     atom 103 (R=0.060)  charge=  5.2143  magn=  0.0011
     atom 104 (R=0.060)  charge=  5.2214  magn=  0.0002
     atom 105 (R=0.060)  charge=  5.2232  magn= -0.0002
     atom 106 (R=0.060)  charge=  5.2186  magn= -0.0001
     atom 107 (R=0.060)  charge=  5.2223  magn=  0.0002
     atom 108 (R=0.060)  charge=  5.2232  magn= -0.0002
     atom 109 (R=0.060)  charge=  5.2187  magn= -0.0001
     atom 110 (R=0.060)  charge=  5.2225  magn=  0.0002
     atom 111 (R=0.060)  charge=  5.2232  magn=  0.0009
     atom 112 (R=0.060)  charge=  5.2148  magn=  0.0068
     atom 113 (R=0.060)  charge=  5.2186  magn=  0.0000
     atom 114 (R=0.060)  charge=  5.2220  magn=  0.0010
     atom 115 (R=0.060)  charge=  5.2150  magn=  0.0067
     atom 116 (R=0.060)  charge=  5.2186  magn= -0.0000
     atom 117 (R=0.060)  charge=  5.2231  magn= -0.0002
     atom 118 (R=0.060)  charge=  5.2186  magn= -0.0001
     atom 119 (R=0.060)  charge=  5.2220  magn=  0.0002
     atom 120 (R=0.060)  charge=  5.2238  magn= -0.0001
     atom 121 (R=0.060)  charge=  5.2145  magn=  0.0011
     atom 122 (R=0.060)  charge=  5.2219  magn=  0.0002
     atom 123 (R=0.060)  charge=  5.2232  magn=  0.0009
     atom 124 (R=0.060)  charge=  5.2145  magn=  0.0067
     atom 125 (R=0.060)  charge=  5.2184  magn= -0.0000
     atom 126 (R=0.060)  charge=  5.2127  magn=  0.0006
     atom 127 (R=0.060)  charge=  5.2182  magn= -0.0000
     atom 128 (R=0.060)  charge=  5.2228  magn=  0.0010
     atom 129 (R=0.060)  charge=  5.2149  magn=  0.0067
     atom 130 (R=0.060)  charge=  5.2186  magn= -0.0000
     atom 131 (R=0.060)  charge=  5.2234  magn= -0.0001
     atom 132 (R=0.060)  charge=  5.2172  magn=  0.0001
     atom 133 (R=0.060)  charge=  5.2216  magn=  0.0002
     atom 134 (R=0.060)  charge=  5.2236  magn= -0.0001
     atom 135 (R=0.060)  charge=  5.2174  magn=  0.0001
     atom 136 (R=0.060)  charge=  5.2219  magn=  0.0002
     atom 137 (R=0.060)  charge=  5.2228  magn=  0.0009
     atom 138 (R=0.060)  charge=  5.2145  magn=  0.0067
     atom 139 (R=0.060)  charge=  5.2187  magn=  0.0000
     atom 140 (R=0.060)  charge=  5.2234  magn=  0.0009
     atom 141 (R=0.060)  charge=  5.2146  magn=  0.0068
     atom 142 (R=0.060)  charge=  5.2187  magn=  0.0000
     atom 143 (R=0.060)  charge=  5.2238  magn=  0.0001
     atom 144 (R=0.060)  charge=  5.2189  magn=  0.0000
     atom 145 (R=0.060)  charge=  5.2193  magn=  0.0000
     atom 146 (R=0.060)  charge=  5.2241  magn=  0.0001
     atom 147 (R=0.060)  charge=  5.2193  magn=  0.0000
     atom 148 (R=0.060)  charge=  5.2195  magn=  0.0000
     atom 149 (R=0.060)  charge=  5.2233  magn=  0.0001
     atom 150 (R=0.060)  charge=  5.2230  magn= -0.0004
     atom 151 (R=0.060)  charge=  5.2199  magn=  0.0001
     atom 152 (R=0.060)  charge=  5.2230  magn=  0.0001
     atom 153 (R=0.060)  charge=  5.2230  magn= -0.0003
     atom 154 (R=0.060)  charge=  5.2197  magn=  0.0001
     atom 155 (R=0.060)  charge=  5.2231  magn=  0.0001
     atom 156 (R=0.060)  charge=  5.2228  magn= -0.0004
     atom 157 (R=0.060)  charge=  5.2196  magn=  0.0001
     atom 158 (R=0.060)  charge=  5.2222  magn=  0.0001
     atom 159 (R=0.060)  charge=  5.2217  magn=  0.0007
     atom 160 (R=0.060)  charge=  5.2221  magn= -0.0001
     atom 161 (R=0.060)  charge=  5.2227  magn=  0.0001
     atom 162 (R=0.060)  charge=  5.2229  magn= -0.0004
     atom 163 (R=0.060)  charge=  5.2195  magn=  0.0000
     atom 164 (R=0.060)  charge=  5.2245  magn=  0.0000
     atom 165 (R=0.060)  charge=  5.2228  magn= -0.0002
     atom 166 (R=0.060)  charge=  5.2202  magn= -0.0001
     atom 167 (R=0.060)  charge=  5.2230  magn=  0.0001
     atom 168 (R=0.060)  charge=  5.2227  magn= -0.0004
     atom 169 (R=0.060)  charge=  5.2193  magn=  0.0001
     atom 170 (R=0.060)  charge=  5.2164  magn= -0.0000
     atom 171 (R=0.060)  charge=  5.2211  magn=  0.0646
     atom 172 (R=0.060)  charge=  5.2096  magn= -0.0026
     atom 173 (R=0.060)  charge=  5.2175  magn= -0.0000
     atom 174 (R=0.060)  charge=  5.2233  magn=  0.0642
     atom 175 (R=0.060)  charge=  5.2090  magn= -0.0026
     atom 176 (R=0.060)  charge=  5.2233  magn=  0.0001
     atom 177 (R=0.060)  charge=  5.2232  magn= -0.0004
     atom 178 (R=0.060)  charge=  5.2199  magn=  0.0000
     atom 179 (R=0.060)  charge=  5.2240  magn=  0.0001
     atom 180 (R=0.060)  charge=  5.2192  magn=  0.0000
     atom 181 (R=0.060)  charge=  5.2195  magn= -0.0000
     atom 182 (R=0.060)  charge=  5.2216  magn=  0.0001
     atom 183 (R=0.060)  charge=  5.2214  magn=  0.0006
     atom 184 (R=0.060)  charge=  5.2213  magn= -0.0001
     atom 185 (R=0.060)  charge=  5.2169  magn= -0.0000
     atom 186 (R=0.060)  charge=  5.2209  magn=  0.0648
     atom 187 (R=0.060)  charge=  5.2093  magn= -0.0026
     atom 188 (R=0.060)  charge=  5.2221  magn=  0.0001
     atom 189 (R=0.060)  charge=  5.2217  magn=  0.0007
     atom 190 (R=0.060)  charge=  5.2223  magn= -0.0001
     atom 191 (R=0.060)  charge=  8.6598  magn=  0.8336

     total cpu time spent up to now is      728.5 secs

     End of self-consistent calculation

 ------ SPIN UP ------------


          k = 0.0000 0.0000 0.0000 ( 60472 PWs)   bands (ev):

  -114.0191-114.0139-114.0124-113.9023-113.8992-113.8985-113.8775-113.8774
  -113.8723-113.8721-113.8710-113.8707-113.5379-113.4751-113.4748-113.4739
  -113.4643-113.4640-113.4632-113.4533-113.4528-113.4514-113.4332-113.4327
  -113.4316-113.4305-113.4279-113.4272-113.4262-113.4259-113.4239-113.4236
  -113.4233-113.4233-113.4113-113.4109-113.4088-113.4086-113.4084-113.4080
  -113.3937-113.3883-113.3882-113.3880-113.3876-113.3876-113.3873-113.3535
  -113.3528-113.3525-113.3524-113.3519-113.3518-113.3515-113.3515-113.3438
  -113.3434-113.3434-113.3428-113.3428-113.3426-113.3425-113.3424-113.3424
  -113.3012-113.3011-113.3010-113.3002-113.3000-113.2998-113.2965-113.2962
  -113.2962-113.2959-113.2958-113.2955-113.2860-113.2858-113.2856-113.2816
  -113.2813-113.2810-113.2787-113.2786-113.2784-113.2779-113.2776-113.2773
  -113.2772-113.2772-113.2771-113.2583-113.2581-113.2580-113.2554 -68.2513
   -68.2461 -68.2448 -68.1672 -68.1634 -68.1622 -68.1608 -68.1584 -68.1569
   -68.1426 -68.1395 -68.1387 -68.1135 -68.1131 -68.1084 -68.1081 -68.1068
   -68.1065 -68.0720 -68.0691 -68.0682 -68.0655 -68.0628 -68.0621 -68.0509
   -68.0507 -68.0460 -68.0459 -68.0444 -68.0443 -68.0410 -68.0409 -68.0360
   -68.0359 -68.0346 -68.0344 -67.7476 -67.7201 -67.7199 -67.6745 -67.6744
   -67.6732 -67.6672 -67.6671 -67.6659 -67.6636 -67.6629 -67.6624 -67.6623
   -67.6622 -67.6612 -67.6540 -67.6540 -67.6537 -67.6535 -67.6533 -67.6530
   -67.6528 -67.6525 -67.6520 -67.6463 -67.6457 -67.6447 -67.6416 -67.6412
   -67.6399 -67.6318 -67.6312 -67.6303 -67.6272 -67.6259 -67.6257 -67.6249
   -67.6246 -67.6244 -67.6242 -67.6237 -67.6237 -67.6235 -67.6233 -67.6230
   -67.6230 -67.6218 -67.6214 -67.6211 -67.6208 -67.6206 -67.6195 -67.6190
   -67.6183 -67.6157 -67.6152 -67.6136 -67.6131 -67.6130 -67.6125 -67.6116
   -67.6113 -67.6113 -67.6111 -67.6095 -67.6092 -67.6090 -67.6089 -67.6087
   -67.6087 -67.6086 -67.6081 -67.6041 -67.6039 -67.6016 -67.6015 -67.6012
   -67.6007 -67.5998 -67.5991 -67.5975 -67.5971 -67.5968 -67.5963 -67.5910
   -67.5907 -67.5905 -67.5901 -67.5901 -67.5899 -67.5878 -67.5877 -67.5854
   -67.5787 -67.5782 -67.5780 -67.5777 -67.5775 -67.5772 -67.5752 -67.5749
   -67.5743 -67.5742 -67.5739 -67.5736 -67.5488 -67.5486 -67.5482 -67.5480
   -67.5477 -67.5474 -67.5471 -67.5460 -67.5460 -67.5459 -67.5450 -67.5448
   -67.5446 -67.5444 -67.5439 -67.5437 -67.5436 -67.5434 -67.5416 -67.5413
   -67.5411 -67.5406 -67.5403 -67.5400 -67.5399 -67.5398 -67.5396 -67.5396
   -67.5391 -67.5390 -67.5360 -67.5355 -67.5353 -67.5352 -67.5351 -67.5349
   -67.5349 -67.5348 -67.5348 -67.5347 -67.5346 -67.5345 -67.5343 -67.5342
   -67.5341 -67.5338 -67.5335 -67.5334 -67.5325 -67.5324 -67.5321 -67.4991
   -67.4990 -67.4989 -67.4983 -67.4982 -67.4979 -67.4945 -67.4941 -67.4937
   -67.4937 -67.4932 -67.4930 -67.4929 -67.4926 -67.4925 -67.4918 -67.4917
   -67.4914 -67.4913 -67.4911 -67.4905 -67.4902 -67.4900 -67.4897 -67.4882
   -67.4878 -67.4878 -67.4877 -67.4872 -67.4869 -67.4868 -67.4859 -67.4856
   -67.4851 -67.4847 -67.4847 -67.4813 -67.4812 -67.4808 -67.4777 -67.4777
   -67.4773 -67.4772 -67.4771 -67.4767 -67.4765 -67.4761 -67.4758 -67.4748
   -67.4745 -67.4744 -67.4743 -67.4743 -67.4742 -67.4742 -67.4740 -67.4739
   -67.4738 -67.4738 -67.4736 -67.4735 -67.4727 -67.4723 -67.4705 -67.4702
   -67.4701 -67.4696 -67.4696 -67.4695 -67.4691 -67.4689 -67.4687 -67.4685
   -67.4684 -67.4683 -67.4678 -67.4674 -67.4673 -67.4669 -67.4667 -67.4665
   -67.4549 -67.4547 -67.4547 -67.4522 -67.4498 -67.4493 -67.4492 -67.4487
   -67.4487 -67.4485 -67.4463 -67.4461 -51.3686 -25.8225 -25.8161 -25.3923
    -8.6331  -8.3426  -8.3331  -7.9316  -7.8053  -7.7382  -7.7188  -7.7173
    -7.6680  -7.6665  -7.6524  -7.6296  -7.5810  -7.5805  -7.5254  -7.5086
    -7.5082  -7.4968  -7.4966  -7.4761  -7.4760  -7.4735  -7.4557  -7.4480
    -7.4184  -7.4139  -7.4045  -7.3878  -7.3719  -7.3709  -7.3502  -7.3484
    -7.3221  -7.3208  -7.3203  -7.3037  -7.2802  -7.2798  -7.2746  -7.2738
    -7.2609  -7.2603  -7.2438  -7.2407  -7.2206  -7.2101  -7.2094  -7.2012
    -7.1960  -7.1955  -7.1868  -7.1776  -7.1775  -7.1720  -7.1709  -7.1708
    -7.1564  -7.1552  -7.1550  -7.1549  -7.1415  -7.1412  -7.1403  -7.1321
    -7.1321  -7.1289  -7.0918  -7.0917  -7.0855  -7.0835  -7.0830  -7.0718
    -7.0713  -7.0713  -7.0612  -7.0581  -7.0575  -7.0559  -7.0368  -7.0364
    -7.0335  -7.0333  -7.0240  -7.0228  -7.0218  -7.0215  -6.9836  -6.9802
    -6.9798  -6.9651  -6.9535  -6.9535  -6.9479  -6.9461  -6.9459   3.6070
     3.6099   3.7612   3.8017   3.8045   3.8641   3.8657   3.8660   3.8892
     3.9039   3.9047   3.9208   3.9588   3.9593   3.9811   3.9811   3.9948
     3.9986   4.0235   4.0241   4.0500   4.0530   4.0532   4.0532   4.0567
     4.0709   4.0712   4.0836   4.0840   4.0985   4.1052   4.1056   4.1147
     4.1169   4.1183   4.1184   4.1245   4.1248   4.1260   4.1465   4.1470
     4.1514   4.1514   4.1516   4.1569   4.1612   4.1619   4.1624   4.1672
     4.1720   4.1721   4.1852   4.1853   4.1889   4.1966   4.1968   4.1973
     4.2033   4.2168   4.2172   4.2197   4.2216   4.2349   4.2386   4.2387
     4.2480   4.2481   4.2515   4.2559   4.2606   4.2606   4.2646   4.2647
     4.2763   4.2765   4.2857   4.2857   4.2933   4.3082   4.3182   4.3269
     4.3272   4.3308   4.3501   4.3504   4.3549   4.3656   4.3657   4.3698
     4.3779   4.3825   4.3826   4.3883   4.3885   4.3956   4.3958   4.4071
     4.4073   4.4200   4.4211   4.4213   4.4309   4.4312   4.4367   4.4371
     4.4397   4.4402   4.4403   4.4532   4.4566   4.4753   4.4758   4.4763
     4.4850   4.4894   4.4896   4.5003   4.5004   4.5094   4.5127   4.5130
     4.5172   4.5178   4.5298   4.5299   4.5441   4.5445   4.5447   4.5577
     4.5597   4.5600   4.5665   4.5702   4.5867   4.5869   4.5917   4.5928
     4.5928   4.5989   4.6031   4.6032   4.6073   4.6074   4.6159   4.6159
     4.6165   4.6176   4.6246   4.6265   4.6269   4.6282   4.6283   4.6288
     4.6363   4.6373   4.6374   4.6393   4.6543   4.6567   4.6569   4.6780
     4.6781   4.6785   4.6798   4.6834   4.6835   4.6886   4.6887   4.6997
     4.7000   4.7035   4.7038   4.7056   4.7056   4.7072   4.7118   4.7120
     4.7215   4.7240   4.7258   4.7259   4.7322   4.7322   4.7363   4.7364
     4.7427   4.7428   4.7446   4.7447   4.7475   4.7486   4.7487   4.7512
     4.7527   4.7534   4.7593   4.7595   4.7631   4.7635   4.7636   4.7641
     4.7659   4.7660   4.7718   4.7719   4.7757   4.7855   4.7856   4.7870
     4.7958   4.8027   4.8107   4.8107   4.8306   4.8308   4.8351   4.8395
     4.8439   4.8440   4.8524   4.8542   4.8542   4.8591   4.8682   4.8682
     4.8817   4.8841   4.8842   4.9133   4.9137   4.9286   4.9287   4.9302
     4.9320   4.9324   4.9352   4.9400   4.9464   4.9466   4.9597   4.9598
     4.9611   4.9657   4.9694   4.9695   4.9769   4.9770   4.9813   4.9875
     4.9996   5.0049   5.0050   5.0093   5.0095   5.0260   5.0262   5.0293
     5.0294   5.0328   5.0367   5.0385   5.0440   5.0481   5.0495   5.0496
     5.0603   5.0603   5.0760   5.0764   5.0918   5.1095   5.1096   5.1115
     5.1249   5.1407   5.1415   5.1477   5.1524   5.1525   5.1633   5.1710
     5.1714   5.1833   5.1842   5.1873   5.1975   5.2087   5.2088   5.2381
     5.2389   5.2558   5.2565   5.2744   5.2769   5.2801   5.2805   5.2893
     5.2963   5.3020   5.3023   5.3300   5.3385   5.3387   5.3410   5.3722
     5.3728   5.3938   5.3943   5.4094   5.4270   5.4302   5.4304   5.4481
     5.4519   5.4522   5.4572   5.4635   5.4672   5.4678   5.4915   5.4959
     5.4959   5.4988   5.4989   5.5116   5.5117   5.5235   5.5302   5.5308
     5.5451   5.5459   5.5462   5.5471   5.5548   5.5551   5.5646   5.5647
     5.5649   5.5705   5.5705   5.5801   5.5885   5.5896   5.5912   5.5915
     5.5983   5.5985   5.5986   5.5987   5.6055   5.6065   5.6091   5.6092
     5.6099   5.6124   5.6124   5.6133   5.6201   5.6202   5.6259   5.6294
     5.6345   5.6345   5.6432   5.6500   5.6501   5.6515   5.6515   5.6577
     5.6577   5.6618   5.6645   5.6645   5.6705   5.6706   5.6768   5.6848
     5.6852   5.6897   5.6899   5.6903   5.6984   5.6985   5.6987   5.7009
     5.7060   5.7065   5.7118   5.7122   5.7122   5.7171   5.7173   5.7193
     5.7200   5.7276   5.7282   5.7284   5.7344   5.7345   5.7366   5.7367
     5.7368   5.7444   5.7445   5.7546   5.7547   5.7621   5.7623   5.7623
     5.7725   5.7734   5.7746   5.7747   5.7748   5.7750   5.7810   5.7814
     5.7823   5.7825   5.7856   5.7857   5.7878   5.7930   5.7933   5.7942
     5.7942   5.7991   5.7991   5.8051   5.8060   5.8081   5.8082   5.8113
     5.8114   5.8180   5.8189   5.8189   5.8209   5.8211   5.8483   5.8484
     5.8503   5.8517   5.8613   5.8613   5.8641   5.8645   5.8678   5.8706
     5.8707   5.8761   5.8762   5.8793   5.8875   5.8875   5.8942   5.9052
     5.9187   5.9340   5.9341   5.9353   5.9353   5.9387   5.9409   5.9644
     5.9645   5.9788   5.9788   5.9832   5.9834   5.9838   5.9966   5.9966
     5.9984   6.0049   6.0077   6.0480   6.0519   6.0520   6.0819   6.0820
     6.0872   6.0875   6.0881   6.0981   6.1076   6.1081   6.1197   6.1317
     6.1318   6.2008   6.2020   6.2021   6.2322   6.2493   6.2494   6.2745
     6.3437   6.3438   6.3474   6.3727   6.3836   6.3837   6.3998   6.4063
     6.4063   6.4148   6.4251   6.4254   6.4371   6.4685   6.4749   6.4750
     6.4963   6.4965   6.5355   6.5360   6.5467   6.5797   6.5798   6.6211
     6.6887   6.6890   6.7437   6.7516   6.7937   6.8074   6.8145   6.8146
     6.8630   6.8630   6.8679   6.8679   6.8890   6.8940   6.8943   6.9109
     6.9329   6.9334   6.9588   6.9591   6.9691   7.0536   7.0538   7.0825
     7.0836   7.0838   7.0945   7.0965   7.0969   7.1118   7.1211   7.1289
     7.1458   7.1463   7.1662   7.2310   7.2311   7.2515   7.2705   7.2707
     7.3471   7.3474   7.3749   7.4005   7.4010   7.4156   7.4286   7.4331
     7.4334   7.4481   7.4783   7.4787   7.4998   7.5133   7.5136   7.5188
     7.5190   7.5209   7.5210   7.5706   7.6030   7.6032   7.6730   7.6741
     7.6741   7.6881   7.6883   7.7313   7.7398   7.7629   7.7630   7.7773
     7.7841   7.7841   7.8080   7.8084   7.8145   7.8557   7.8559   7.9530
     7.9532   7.9809   8.0512   8.0556   8.0556   8.1174   8.1178   8.1233
     8.1382   8.1394   8.1396   8.1641   8.1642   8.1790   8.1944   8.2013
     8.2015   8.2055   8.2097   8.2102   8.2154   8.2155   8.2338   8.2340
     8.2392   8.2507   8.2510   8.2777   8.2925   8.2926   8.3354   8.3395
     8.3396   8.3606   8.3607   8.3631   8.3860   8.3870   8.3871   8.4001
     8.4002   8.4174   8.4212   8.4215   8.4484   8.4628   8.4628   8.4719
     8.4924   8.4976   8.4978   8.5111   8.5376   8.5377   8.5703   8.5784
     8.5791   8.5936   8.6243   8.6245   8.6689   8.7319   8.7594   8.7598
     8.7729   8.7731   8.8131   8.8131   8.8151   8.8153   8.8409   8.8525
     8.8526   8.8533   8.8615   8.8672   8.8677   8.8767   8.8783   8.8820
     8.8823   8.8929   8.8930   8.9020   8.9110   8.9113   8.9153   8.9154
     8.9238   8.9241   8.9378   8.9447   8.9450   8.9842   8.9845   9.0323
     9.0489   9.0493   9.0630   9.0703   9.0730   9.0733   9.0766   9.0881
     9.0883   9.0941   9.0944   9.1203   9.1205   9.1509   9.1803   9.1804
     9.2345   9.2379   9.2616   9.2620   9.2772   9.2773   9.3215   9.3216
     9.3311   9.3312   9.3358   9.3361   9.3619   9.3625   9.3650   9.3918
     9.3920   9.4093   9.4094   9.4147   9.4346   9.4576   9.4579   9.4586
     9.4634   9.5147   9.5148   9.5243   9.5244   9.5589   9.5592   9.6268
     9.6272   9.6518   9.6696   9.6699   9.7093   9.7239   9.7242   9.7312
     9.7745   9.8464   9.8465   9.9219   9.9220  10.0011  10.1305  10.1306
    10.8055  10.8196  11.0570  12.2372  12.5543  12.7837  12.8156  12.8178
    13.2214  13.2221  13.4088  13.4094  13.4471  13.5552  13.9459  13.9678
    13.9684  14.0746  14.0747  14.1247  14.1248  14.1418  14.1423  14.1518
    14.1643  14.3999  14.4356  14.8306  15.1638  15.1643  15.3973  15.4623
    15.5441  15.5445  15.6568  15.6569  15.6821  15.7043  15.8285  15.8294
    15.8451  15.8455  15.8905  15.8963  15.8964  15.9135  15.9138  15.9145
    15.9398  15.9569  15.9575  15.9708  15.9935  16.0412  16.0413  16.1436
    16.1437  16.1661  16.2039  16.2065  16.2088  16.2089  16.2499  16.2576
    16.2576  16.2804  16.2805  16.3692  16.4070  16.4071  16.4152  16.4389
    16.4389  16.7887  16.7888  16.9158  17.0134  17.0516  17.0521  17.0695
    17.1182  17.1195  17.1199  17.1876  17.1880  17.2051  17.2055  17.2245
    17.2293  17.2294  17.2400  17.2500  17.3051  17.3052  17.5069  17.5231
    17.5232  17.7857  17.7863  17.8231  17.8792  17.8793  17.8806  17.9964
    18.0423  18.0432  18.2084  18.2374  18.2380  18.2701  18.3015  18.3022
    18.3168  18.3170  18.3271  18.3574  18.3581  18.3683  18.4197  18.5406
    18.5406  18.5605  18.6047  18.6047  18.6702  18.6707  18.6712  18.6742
    18.6902  18.6903  18.7237  18.7410  18.7542  18.7543  18.7652  18.7652
    18.7759  18.7860  18.7862  18.7938  18.7941  18.8166  18.8239  18.8241
    18.8381  18.8494  18.8499  18.8930  18.8939  18.9202  18.9299  18.9307
    18.9449  18.9534  18.9537  18.9576  18.9585  18.9586  18.9601  18.9811

     occupation numbers 
     1.0000   1.0000   1.0000   1.0000   1.0000   1.0000   1.0000   1.0000
     1.0000   1.0000   1.0000   1.0000   1.0000   1.0000   1.0000   1.0000
     1.0000   1.0000   1.0000   1.0000   1.0000   1.0000   1.0000   1.0000
     1.0000   1.0000   1.0000   1.0000   1.0000   1.0000   1.0000   1.0000
     1.0000   1.0000   1.0000   1.0000   1.0000   1.0000   1.0000   1.0000
     1.0000   1.0000   1.0000   1.0000   1.0000   1.0000   1.0000   1.0000
     1.0000   1.0000   1.0000   1.0000   1.0000   1.0000   1.0000   1.0000
     1.0000   1.0000   1.0000   1.0000   1.0000   1.0000   1.0000   1.0000
     1.0000   1.0000   1.0000   1.0000   1.0000   1.0000   1.0000   1.0000
     1.0000   1.0000   1.0000   1.0000   1.0000   1.0000   1.0000   1.0000
     1.0000   1.0000   1.0000   1.0000   1.0000   1.0000   1.0000   1.0000
     1.0000   1.0000   1.0000   1.0000   1.0000   1.0000   1.0000   1.0000
     1.0000   1.0000   1.0000   1.0000   1.0000   1.0000   1.0000   1.0000
     1.0000   1.0000   1.0000   1.0000   1.0000   1.0000   1.0000   1.0000
     1.0000   1.0000   1.0000   1.0000   1.0000   1.0000   1.0000   1.0000
     1.0000   1.0000   1.0000   1.0000   1.0000   1.0000   1.0000   1.0000
     1.0000   1.0000   1.0000   1.0000   1.0000   1.0000   1.0000   1.0000
     1.0000   1.0000   1.0000   1.0000   1.0000   1.0000   1.0000   1.0000
     1.0000   1.0000   1.0000   1.0000   1.0000   1.0000   1.0000   1.0000
     1.0000   1.0000   1.0000   1.0000   1.0000   1.0000   1.0000   1.0000
     1.0000   1.0000   1.0000   1.0000   1.0000   1.0000   1.0000   1.0000
     1.0000   1.0000   1.0000   1.0000   1.0000   1.0000   1.0000   1.0000
     1.0000   1.0000   1.0000   1.0000   1.0000   1.0000   1.0000   1.0000
     1.0000   1.0000   1.0000   1.0000   1.0000   1.0000   1.0000   1.0000
     1.0000   1.0000   1.0000   1.0000   1.0000   1.0000   1.0000   1.0000
     1.0000   1.0000   1.0000   1.0000   1.0000   1.0000   1.0000   1.0000
     1.0000   1.0000   1.0000   1.0000   1.0000   1.0000   1.0000   1.0000
     1.0000   1.0000   1.0000   1.0000   1.0000   1.0000   1.0000   1.0000
     1.0000   1.0000   1.0000   1.0000   1.0000   1.0000   1.0000   1.0000
     1.0000   1.0000   1.0000   1.0000   1.0000   1.0000   1.0000   1.0000
     1.0000   1.0000   1.0000   1.0000   1.0000   1.0000   1.0000   1.0000
     1.0000   1.0000   1.0000   1.0000   1.0000   1.0000   1.0000   1.0000
     1.0000   1.0000   1.0000   1.0000   1.0000   1.0000   1.0000   1.0000
     1.0000   1.0000   1.0000   1.0000   1.0000   1.0000   1.0000   1.0000
     1.0000   1.0000   1.0000   1.0000   1.0000   1.0000   1.0000   1.0000
     1.0000   1.0000   1.0000   1.0000   1.0000   1.0000   1.0000   1.0000
     1.0000   1.0000   1.0000   1.0000   1.0000   1.0000   1.0000   1.0000
     1.0000   1.0000   1.0000   1.0000   1.0000   1.0000   1.0000   1.0000
     1.0000   1.0000   1.0000   1.0000   1.0000   1.0000   1.0000   1.0000
     1.0000   1.0000   1.0000   1.0000   1.0000   1.0000   1.0000   1.0000
     1.0000   1.0000   1.0000   1.0000   1.0000   1.0000   1.0000   1.0000
     1.0000   1.0000   1.0000   1.0000   1.0000   1.0000   1.0000   1.0000
     1.0000   1.0000   1.0000   1.0000   1.0000   1.0000   1.0000   1.0000
     1.0000   1.0000   1.0000   1.0000   1.0000   1.0000   1.0000   1.0000
     1.0000   1.0000   1.0000   1.0000   1.0000   1.0000   1.0000   1.0000
     1.0000   1.0000   1.0000   1.0000   1.0000   1.0000   1.0000   1.0000
     1.0000   1.0000   1.0000   1.0000   1.0000   1.0000   1.0000   1.0000
     1.0000   1.0000   1.0000   1.0000   1.0000   1.0000   1.0000   1.0000
     1.0000   1.0000   1.0000   1.0000   1.0000   1.0000   1.0000   1.0000
     1.0000   1.0000   1.0000   1.0000   1.0000   1.0000   1.0000   1.0000
     1.0000   1.0000   1.0000   1.0000   1.0000   1.0000   1.0000   1.0000
     1.0000   1.0000   1.0000   1.0000   1.0000   1.0000   1.0000   1.0000
     1.0000   1.0000   1.0000   1.0000   1.0000   1.0000   1.0000   1.0000
     1.0000   1.0000   1.0000   1.0000   1.0000   1.0000   1.0000   1.0000
     1.0000   1.0000   1.0000   1.0000   1.0000   1.0000   1.0000   1.0000
     1.0000   1.0000   1.0000   1.0000   1.0000   1.0000   1.0000   1.0000
     1.0000   1.0000   1.0000   1.0000   1.0000   1.0000   1.0000   1.0000
     1.0000   1.0000   1.0000   1.0000   1.0000   1.0000   1.0000   1.0000
     1.0000   1.0000   1.0000   1.0000   1.0000   1.0000   1.0000   1.0000
     1.0000   1.0000   1.0000   1.0000   1.0000   1.0000   1.0000   1.0000
     1.0000   1.0000   1.0000   1.0000   1.0000   1.0000   1.0000   1.0000
     1.0000   1.0000   1.0000   1.0000   1.0000   1.0000   1.0000   1.0000
     1.0000   1.0000   1.0000   1.0000   1.0000   1.0000   1.0000   1.0000
     1.0000   1.0000   1.0000   1.0000   1.0000   1.0000   1.0000   1.0000
     1.0000   1.0000   1.0000   1.0000   1.0000   1.0000   1.0000   1.0000
     1.0000   1.0000   1.0000   1.0000   1.0000   1.0000   1.0000   1.0000
     1.0000   1.0000   1.0000   1.0000   1.0000   1.0000   1.0000   1.0000
     1.0000   1.0000   1.0000   1.0000   1.0000   1.0000   1.0000   1.0000
     1.0000   1.0000   1.0000   1.0000   1.0000   1.0000   1.0000   1.0000
     1.0000   1.0000   1.0000   1.0000   1.0000   1.0000   1.0000   1.0000
     1.0000   1.0000   1.0000   1.0000   1.0000   1.0000   1.0000   1.0000
     1.0000   1.0000   1.0000   1.0000   1.0000   1.0000   1.0000   1.0000
     1.0000   1.0000   1.0000   1.0000   1.0000   1.0000   1.0000   1.0000
     1.0000   1.0000   1.0000   1.0000   1.0000   1.0000   1.0000   1.0000
     1.0000   1.0000   1.0000   1.0000   1.0000   1.0000   1.0000   1.0000
     1.0000   1.0000   1.0000   1.0000   1.0000   1.0000   1.0000   1.0000
     1.0000   1.0000   1.0000   1.0000   1.0000   1.0000   1.0000   1.0000
     1.0000   1.0000   1.0000   1.0000   1.0000   1.0000   1.0000   1.0000
     1.0000   1.0000   1.0000   1.0000   1.0000   1.0000   1.0000   1.0000
     1.0000   1.0000   1.0000   1.0000   1.0000   1.0000   1.0000   1.0000
     1.0000   1.0000   1.0000   1.0000   1.0000   1.0000   1.0000   1.0000
     1.0000   1.0000   1.0000   1.0000   1.0000   1.0000   1.0000   1.0000
     1.0000   1.0000   1.0000   1.0000   1.0000   1.0000   1.0000   1.0000
     1.0000   1.0000   1.0000   1.0000   1.0000   1.0000   1.0000   1.0000
     1.0000   1.0000   1.0000   1.0000   1.0000   1.0000   1.0000   1.0000
     1.0000   1.0000   1.0000   1.0000   1.0000   1.0000   1.0000   1.0000
     1.0000   1.0000   1.0000   1.0000   1.0000   1.0000   1.0000   1.0000
     1.0000   1.0000   1.0000   1.0000   1.0000   1.0000   1.0000   1.0000
     1.0000   1.0000   1.0000   1.0000   1.0000   1.0000   1.0000   1.0000
     1.0000   1.0000   1.0000   1.0000   1.0000   1.0000   1.0000   1.0000
     1.0000   1.0000   1.0000   1.0000   1.0000   1.0000   1.0000   1.0000
     1.0000   1.0000   1.0000   1.0000   1.0000   1.0000   1.0000   1.0000
     1.0000   1.0000   1.0000   1.0000   1.0000   1.0000   1.0000   1.0000
     1.0000   1.0000   1.0000   1.0000   1.0000   1.0000   1.0000   1.0000
     1.0000   1.0000   1.0000   1.0000   1.0000   1.0000   1.0000   1.0000
     1.0000   1.0000   1.0000   1.0000   1.0000   1.0000   1.0000   1.0000
     1.0000   1.0000   1.0000   1.0000   1.0000   1.0000   1.0000   1.0000
     1.0000   1.0000   1.0000   1.0000   1.0000   1.0000   1.0000   1.0000
     1.0000   1.0000   1.0000   1.0000   1.0000   1.0000   1.0000   1.0000
     1.0000   1.0000   1.0000   1.0000   1.0000   1.0000   1.0000   1.0000
     1.0000   1.0000   1.0000   1.0000   1.0000   1.0000   1.0000   1.0000
     1.0000   1.0000   1.0000   1.0000   1.0000   1.0000   1.0000   1.0000
     1.0000   1.0000   1.0000   1.0000   1.0000   1.0000   1.0000   1.0000
     1.0000   1.0000   1.0000   1.0000   1.0000   1.0000   1.0000   1.0000
     1.0000   1.0000   1.0000   1.0000   1.0000   1.0000   1.0000   1.0000
     1.0000   1.0000   1.0000   1.0000   1.0000   1.0000   1.0000   1.0000
     1.0000   1.0000   1.0000   1.0000   1.0000   1.0000   1.0000   1.0000
     1.0000   1.0000   1.0000   1.0000   1.0000   1.0000   1.0000   1.0000
     1.0000   1.0000   1.0000   1.0000   1.0000   1.0000   1.0000   1.0000
     1.0000   1.0000   1.0000   1.0000   1.0000   1.0000   1.0000   1.0000
     1.0000   1.0000   1.0000   1.0000   1.0000   1.0000   1.0000   1.0000
     1.0000   1.0000   1.0000   1.0000   1.0000   1.0000   1.0000   1.0000
     1.0000   1.0000   1.0000   1.0000   1.0000   1.0000   1.0000   1.0000
     1.0000   1.0000   1.0000   1.0000   1.0000   1.0000   1.0000   1.0000
     1.0000   1.0000   1.0000   1.0000   1.0000   1.0000   1.0000   1.0000
     1.0000   1.0000   1.0000   1.0000   1.0000   1.0000   1.0000   1.0000
     1.0000   1.0000   1.0000   1.0000   1.0000   1.0000   1.0000   1.0000
     1.0000   1.0000   1.0000   1.0000   1.0000   1.0000   1.0000   1.0000
     1.0000   1.0000   1.0000   1.0000   1.0000   1.0000   1.0000   1.0000
     1.0000   1.0000   1.0000   1.0000   1.0000   1.0000   1.0000   1.0000
     1.0000   1.0000   1.0000   1.0000   1.0000   1.0000   1.0000   1.0000
     1.0000   1.0000   1.0000   1.0000   1.0000   1.0000   1.0000   1.0000
     1.0000   1.0000   1.0000   1.0000   1.0000   1.0000   1.0000   1.0000
     1.0000   1.0000   1.0000   1.0000   1.0000   1.0000   1.0000   1.0000
     1.0000   1.0000   1.0000   1.0000   1.0000   1.0000   1.0000   1.0000
     1.0000   1.0000   1.0000   1.0000   1.0000   1.0000   1.0000   1.0000
     1.0000   1.0000   1.0000   1.0000   1.0000   1.0000   1.0000   1.0000
     1.0000   1.0000   1.0000   1.0000   1.0000   1.0000   1.0000   1.0000
     1.0000   1.0000   1.0000   1.0000   1.0000   1.0000   1.0000   1.0000
     1.0000   1.0000   1.0000   1.0000   1.0000   1.0000   1.0000   1.0000
     1.0000   1.0000   1.0000   1.0000   1.0000   1.0000   1.0000   1.0000
     1.0000   1.0000   1.0000   1.0000   1.0000   1.0000   1.0000   1.0000
     1.0000   1.0000   1.0000   1.0000   1.0000   1.0000   1.0000   1.0000
     1.0000   1.0000   1.0000   1.0000   1.0000   1.0000   1.0000   1.0000
     1.0000   1.0000   1.0000   1.0000   1.0000   1.0000   1.0000   1.0000
     1.0000   1.0000   1.0000   1.0000   1.0000   1.0000   1.0000   1.0000
     1.0000   1.0000   1.0000   1.0000   1.0000   1.0000   1.0000   1.0000
     1.0000   1.0000   1.0000   1.0000   1.0000   1.0000   1.0000   1.0000
     1.0000   1.0000   1.0000   1.0000   1.0000   1.0000   1.0000   1.0000
     1.0000   1.0000   1.0000   1.0000   1.0000   1.0000   1.0000   1.0000
     1.0000   1.0000   1.0000   1.0000   1.0000   1.0000   1.0000   1.0000
     1.0000   1.0000   1.0000   1.0000   1.0000   1.0000   1.0000   1.0000
     1.0000   1.0000   1.0000   1.0000   1.0000   1.0000   1.0000   1.0000
[...]
     6.8569   6.8962   6.8963   6.9209   6.9896   7.0236   7.0373   7.0373
     7.0668   7.0669   7.0851   7.0949   7.0969   7.0969   7.1264   7.1288
     7.1289   7.1372   7.1557   7.1557   7.1576   7.1752   7.1753   7.1821
     7.1905   7.1923   7.1925   7.2039   7.2148   7.2148   7.2237   7.2378
     7.2379   7.2432   7.2511   7.2591   7.2592   7.2996   7.2996   7.3610
     7.3739   7.3739   7.3900   7.3996   7.4003   7.4003   7.4039   7.4167
     7.4168   7.4274   7.4275   7.4528   7.4529   7.4945   7.5091   7.5092
     7.5745   7.5909   7.5966   7.5966   7.6198   7.6198   7.6603   7.6604
     7.6724   7.6725   7.6729   7.6730   7.6987   7.7011   7.7054   7.7336
     7.7338   7.7510   7.7512   7.7576   7.7763   7.8030   7.8032   7.8118
     7.8288   7.8631   7.8632   7.8822   7.8822   7.9328   7.9329   8.0022
     8.0023   8.0316   8.0439   8.0441   8.0832   8.1001   8.1004   8.1093
     8.2253   8.2253   8.3098   8.3098   8.4032   8.5440   8.5440   9.0766
    11.7791  13.0699  13.0699  13.1371  13.2936  13.6335  14.0805  14.0805
    14.1805  14.1805  14.2379  14.2488  14.2489  14.3643  14.8435  14.8762
    14.8762  14.9408  14.9409  15.0014  15.0015  15.0157  15.0225  15.0225
    15.0282  15.3157  15.3723  15.7445  16.1850  16.1851  16.3876  16.4488
    16.4488  16.4528  16.5838  16.5838  16.6006  16.6331  16.8405  16.8406
    16.8582  16.8583  16.9117  16.9118  16.9226  16.9227  16.9243  16.9284
    16.9512  16.9861  17.0032  17.0032  17.0469  17.0905  17.0906  17.1655
    17.1655  17.1931  17.2384  17.2387  17.2388  17.2389  17.2681  17.2682
    17.2784  17.2848  17.3127  17.3127  17.3248  17.3355  17.3355  17.3628
    17.3629  17.7992  17.7992  17.9225  17.9307  18.0186  18.0186  18.0705
    18.0722  18.1044  18.1045  18.1840  18.1840  18.2057  18.2335  18.2336
    18.2985  18.2985  18.3363  18.3754  18.3755  18.4147  18.4897  18.5645
    18.5646  18.7174  18.7174  18.7606  18.8130  18.8148  18.8148  18.9929
    19.0973  19.0974  19.3386  19.3386  19.3587  19.3588  19.3607  19.3765
    19.4523  19.4928  19.4928  19.5378  19.5378  19.5526  19.5856  19.6669
    19.6738  19.6739  19.8133  19.8133  19.8186  19.8255  19.8255  19.8925
    19.8926  19.8968  19.9076  19.9366  19.9465  19.9466  19.9583  19.9583
    19.9647  19.9803  19.9908  19.9908  20.0327  20.0339  20.0339  20.0637
    20.0639  20.0871  20.1216  20.1513  20.1521  20.1684  20.1698  20.2210
    20.2342  20.2399  20.2408  20.2415  20.2512  20.2735  20.2756  20.2903

     occupation numbers 
     1.0000   1.0000   1.0000   1.0000   1.0000   1.0000   1.0000   1.0000
     1.0000   1.0000   1.0000   1.0000   1.0000   1.0000   1.0000   1.0000
     1.0000   1.0000   1.0000   1.0000   1.0000   1.0000   1.0000   1.0000
     1.0000   1.0000   1.0000   1.0000   1.0000   1.0000   1.0000   1.0000
     1.0000   1.0000   1.0000   1.0000   1.0000   1.0000   1.0000   1.0000
     1.0000   1.0000   1.0000   1.0000   1.0000   1.0000   1.0000   1.0000
     1.0000   1.0000   1.0000   1.0000   1.0000   1.0000   1.0000   1.0000
     1.0000   1.0000   1.0000   1.0000   1.0000   1.0000   1.0000   1.0000
     1.0000   1.0000   1.0000   1.0000   1.0000   1.0000   1.0000   1.0000
     1.0000   1.0000   1.0000   1.0000   1.0000   1.0000   1.0000   1.0000
     1.0000   1.0000   1.0000   1.0000   1.0000   1.0000   1.0000   1.0000
     1.0000   1.0000   1.0000   1.0000   1.0000   1.0000   1.0000   1.0000
     1.0000   1.0000   1.0000   1.0000   1.0000   1.0000   1.0000   1.0000
     1.0000   1.0000   1.0000   1.0000   1.0000   1.0000   1.0000   1.0000
     1.0000   1.0000   1.0000   1.0000   1.0000   1.0000   1.0000   1.0000
     1.0000   1.0000   1.0000   1.0000   1.0000   1.0000   1.0000   1.0000
     1.0000   1.0000   1.0000   1.0000   1.0000   1.0000   1.0000   1.0000
     1.0000   1.0000   1.0000   1.0000   1.0000   1.0000   1.0000   1.0000
     1.0000   1.0000   1.0000   1.0000   1.0000   1.0000   1.0000   1.0000
     1.0000   1.0000   1.0000   1.0000   1.0000   1.0000   1.0000   1.0000
     1.0000   1.0000   1.0000   1.0000   1.0000   1.0000   1.0000   1.0000
     1.0000   1.0000   1.0000   1.0000   1.0000   1.0000   1.0000   1.0000
     1.0000   1.0000   1.0000   1.0000   1.0000   1.0000   1.0000   1.0000
     1.0000   1.0000   1.0000   1.0000   1.0000   1.0000   1.0000   1.0000
     1.0000   1.0000   1.0000   1.0000   1.0000   1.0000   1.0000   1.0000
     1.0000   1.0000   1.0000   1.0000   1.0000   1.0000   1.0000   1.0000
     1.0000   1.0000   1.0000   1.0000   1.0000   1.0000   1.0000   1.0000
     1.0000   1.0000   1.0000   1.0000   1.0000   1.0000   1.0000   1.0000
     1.0000   1.0000   1.0000   1.0000   1.0000   1.0000   1.0000   1.0000
     1.0000   1.0000   1.0000   1.0000   1.0000   1.0000   1.0000   1.0000
     1.0000   1.0000   1.0000   1.0000   1.0000   1.0000   1.0000   1.0000
     1.0000   1.0000   1.0000   1.0000   1.0000   1.0000   1.0000   1.0000
     1.0000   1.0000   1.0000   1.0000   1.0000   1.0000   1.0000   1.0000
     1.0000   1.0000   1.0000   1.0000   1.0000   1.0000   1.0000   1.0000
     1.0000   1.0000   1.0000   1.0000   1.0000   1.0000   1.0000   1.0000
     1.0000   1.0000   1.0000   1.0000   1.0000   1.0000   1.0000   1.0000
     1.0000   1.0000   1.0000   1.0000   1.0000   1.0000   1.0000   1.0000
     1.0000   1.0000   1.0000   1.0000   1.0000   1.0000   1.0000   1.0000
     1.0000   1.0000   1.0000   1.0000   1.0000   1.0000   1.0000   1.0000
     1.0000   1.0000   1.0000   1.0000   1.0000   1.0000   1.0000   1.0000
     1.0000   1.0000   1.0000   1.0000   1.0000   1.0000   1.0000   1.0000
     1.0000   1.0000   1.0000   1.0000   1.0000   1.0000   1.0000   1.0000
     1.0000   1.0000   1.0000   1.0000   1.0000   1.0000   1.0000   1.0000
     1.0000   1.0000   1.0000   1.0000   1.0000   1.0000   1.0000   1.0000
     1.0000   1.0000   1.0000   1.0000   1.0000   1.0000   1.0000   1.0000
     1.0000   1.0000   1.0000   1.0000   1.0000   1.0000   1.0000   1.0000
     1.0000   1.0000   1.0000   1.0000   1.0000   1.0000   1.0000   1.0000
     1.0000   1.0000   1.0000   1.0000   1.0000   1.0000   1.0000   1.0000
     1.0000   1.0000   1.0000   1.0000   1.0000   1.0000   1.0000   1.0000
     1.0000   1.0000   1.0000   1.0000   1.0000   1.0000   1.0000   1.0000
     1.0000   1.0000   1.0000   1.0000   1.0000   1.0000   1.0000   1.0000
     1.0000   1.0000   1.0000   1.0000   1.0000   1.0000   1.0000   1.0000
     1.0000   1.0000   1.0000   1.0000   1.0000   1.0000   1.0000   1.0000
     1.0000   1.0000   1.0000   1.0000   1.0000   1.0000   1.0000   1.0000
     1.0000   1.0000   1.0000   1.0000   1.0000   1.0000   1.0000   1.0000
     1.0000   1.0000   1.0000   1.0000   1.0000   1.0000   1.0000   1.0000
     1.0000   1.0000   1.0000   1.0000   1.0000   1.0000   1.0000   1.0000
     1.0000   1.0000   1.0000   1.0000   1.0000   1.0000   1.0000   1.0000
     1.0000   1.0000   1.0000   1.0000   1.0000   1.0000   1.0000   1.0000
     1.0000   1.0000   1.0000   1.0000   1.0000   1.0000   1.0000   1.0000
     1.0000   1.0000   1.0000   1.0000   1.0000   1.0000   1.0000   1.0000
     1.0000   1.0000   1.0000   1.0000   1.0000   1.0000   1.0000   1.0000
     1.0000   1.0000   1.0000   1.0000   1.0000   1.0000   1.0000   1.0000
     1.0000   1.0000   1.0000   1.0000   1.0000   1.0000   1.0000   1.0000
     1.0000   1.0000   1.0000   1.0000   1.0000   1.0000   1.0000   1.0000
     1.0000   1.0000   1.0000   1.0000   1.0000   1.0000   1.0000   1.0000
     1.0000   1.0000   1.0000   1.0000   1.0000   1.0000   1.0000   1.0000
     1.0000   1.0000   1.0000   1.0000   1.0000   1.0000   1.0000   1.0000
     1.0000   1.0000   1.0000   1.0000   1.0000   1.0000   1.0000   1.0000
     1.0000   1.0000   1.0000   1.0000   1.0000   1.0000   1.0000   1.0000
     1.0000   1.0000   1.0000   1.0000   1.0000   1.0000   1.0000   1.0000
     1.0000   1.0000   1.0000   1.0000   1.0000   1.0000   1.0000   1.0000
     1.0000   1.0000   1.0000   1.0000   1.0000   1.0000   1.0000   1.0000
     1.0000   1.0000   1.0000   1.0000   1.0000   1.0000   1.0000   1.0000
     1.0000   1.0000   1.0000   1.0000   1.0000   1.0000   1.0000   1.0000
     1.0000   1.0000   1.0000   1.0000   1.0000   1.0000   1.0000   1.0000
     1.0000   1.0000   1.0000   1.0000   1.0000   1.0000   1.0000   1.0000
     1.0000   1.0000   1.0000   1.0000   1.0000   1.0000   1.0000   1.0000
     1.0000   1.0000   1.0000   1.0000   1.0000   1.0000   1.0000   1.0000
     1.0000   1.0000   1.0000   1.0000   1.0000   1.0000   1.0000   1.0000
     1.0000   1.0000   1.0000   1.0000   1.0000   1.0000   1.0000   1.0000
     1.0000   1.0000   1.0000   1.0000   1.0000   1.0000   1.0000   1.0000
     1.0000   1.0000   1.0000   1.0000   1.0000   1.0000   1.0000   1.0000
     1.0000   1.0000   1.0000   1.0000   1.0000   1.0000   1.0000   1.0000
     1.0000   1.0000   1.0000   1.0000   1.0000   1.0000   1.0000   1.0000
     1.0000   1.0000   1.0000   1.0000   1.0000   1.0000   1.0000   1.0000
     1.0000   1.0000   1.0000   1.0000   1.0000   1.0000   1.0000   1.0000
     1.0000   1.0000   1.0000   1.0000   1.0000   1.0000   1.0000   1.0000
     1.0000   1.0000   1.0000   1.0000   1.0000   1.0000   1.0000   1.0000
     1.0000   1.0000   1.0000   1.0000   1.0000   1.0000   1.0000   1.0000
     1.0000   1.0000   1.0000   1.0000   1.0000   1.0000   1.0000   1.0000
     1.0000   1.0000   1.0000   1.0000   1.0000   1.0000   1.0000   1.0000
     1.0000   1.0000   1.0000   1.0000   1.0000   1.0000   1.0000   1.0000
     1.0000   1.0000   1.0000   1.0000   1.0000   1.0000   1.0000   1.0000
     1.0000   1.0000   1.0000   1.0000   1.0000   1.0000   1.0000   1.0000
     1.0000   1.0000   1.0000   1.0000   1.0000   1.0000   1.0000   1.0000
     1.0000   1.0000   1.0000   1.0000   1.0000   1.0000   1.0000   1.0000
     1.0000   1.0000   1.0000   1.0000   1.0000   1.0000   1.0000   1.0000
     1.0000   1.0000   1.0000   1.0000   1.0000   1.0000   1.0000   1.0000
     1.0000   1.0000   1.0000   1.0000   1.0000   1.0000   1.0000   1.0000
     1.0000   1.0000   1.0000   1.0000   1.0000   1.0000   1.0000   1.0000
     1.0000   1.0000   1.0000   1.0000   1.0000   1.0000   1.0000   1.0000
     1.0000   1.0000   1.0000   1.0000   1.0000   1.0000   1.0000   1.0000
     1.0000   1.0000   1.0000   1.0000   1.0000   1.0000   1.0000   1.0000
     1.0000   1.0000   1.0000   1.0000   1.0000   1.0000   1.0000   1.0000
     1.0000   1.0000   1.0000   1.0000   1.0000   1.0000   1.0000   1.0000
     1.0000   1.0000   1.0000   1.0000   1.0000   1.0000   1.0000   1.0000
     1.0000   1.0000   1.0000   1.0000   1.0000   1.0000   1.0000   1.0000
     1.0000   1.0000   1.0000   1.0000   1.0000   1.0000   1.0000   1.0000
     1.0000   1.0000   1.0000   1.0000   1.0000   1.0000   1.0000   1.0000
     1.0000   1.0000   1.0000   1.0000   1.0000   1.0000   1.0000   1.0000
     1.0000   1.0000   1.0000   1.0000   1.0000   1.0000   1.0000   1.0000
     1.0000   1.0000   1.0000   1.0000   1.0000   1.0000   1.0000   1.0000
     1.0000   1.0000   1.0000   1.0000   1.0000   1.0000   1.0000   1.0000
     1.0000   1.0000   1.0000   1.0000   1.0000   1.0000   1.0000   1.0000
     1.0000   1.0000   1.0000   1.0000   1.0000   1.0000   1.0000   1.0000
     1.0000   1.0000   1.0000   1.0000   1.0000   1.0000   1.0000   1.0000
     1.0000   1.0000   1.0000   1.0000   1.0000   1.0000   1.0000   1.0000
     1.0000   1.0000   1.0000   1.0000   1.0000   1.0000   1.0000   1.0000
     1.0000   1.0000   1.0000   1.0000   1.0000   1.0000   1.0000   1.0000
     1.0000   1.0000   1.0000   1.0000   1.0000   1.0000   1.0000   1.0000
     1.0000   1.0000   1.0000   1.0000   1.0000   1.0000   1.0000   1.0000
     1.0000   1.0000   1.0000   1.0000   1.0000   1.0000   1.0000   1.0000
     1.0000   1.0000   1.0000   1.0000   1.0000   1.0000   1.0000   1.0000
     1.0000   1.0000   1.0000   1.0000   1.0000   1.0000   1.0000   1.0000
     1.0000   1.0000   1.0000   1.0000   1.0000   1.0000   1.0000   1.0000
     1.0000   1.0000   1.0000   1.0000   1.0000   1.0000   1.0000   1.0000
     1.0000   1.0000   1.0000   1.0000   1.0000   1.0000   1.0000   1.0000
     1.0000   1.0000   1.0000   1.0000   1.0000   1.0000   1.0000   1.0000
     1.0000   1.0000   1.0000   1.0000   1.0000   1.0000   1.0000   1.0000
     1.0000   1.0000   1.0000   1.0000   1.0000   1.0000   1.0000   1.0000
     1.0000   1.0000   1.0000   1.0000   1.0000   1.0000   1.0000   1.0000
     1.0000   1.0000   1.0000   1.0000   1.0000   1.0000   1.0000   1.0000
     1.0000   1.0000   1.0000   1.0000   1.0000   1.0000   1.0000   1.0000
     1.0000   1.0000   1.0000   1.0000   1.0000   1.0000   1.0000   1.0000
     1.0000   1.0000   1.0000   1.0000   1.0000   1.0000   1.0000   1.0000
     1.0000   1.0000   1.0000   1.0000   1.0000   1.0000   1.0000   1.0000
     1.0000   1.0000   1.0000   1.0000   1.0000   1.0000   1.0000   1.0000
     1.0000   1.0000   1.0000   1.0000   1.0000   1.0000   1.0000   1.0000
     1.0000   1.0000   1.0000   1.0000   1.0000   1.0000   1.0000   1.0000
     1.0000   1.0000   1.0000   1.0000   1.0000   1.0000   1.0000   1.0000
     1.0000   1.0000   1.0000   1.0000   1.0000   1.0000   1.0000   1.0000
     1.0000   1.0000   1.0000   1.0000   1.0000   1.0000   1.0000   1.0000
     1.0000   1.0000   1.0000   1.0000   1.0000   1.0000   1.0000   1.0000
     1.0000   1.0000   1.0000   1.0000   1.0000   1.0000   1.0000   1.0000
     1.0000   1.0000   1.0000   1.0000   1.0000   1.0000   1.0000   1.0000
     1.0000   1.0000   1.0000   1.0000   1.0000   1.0000   1.0000   1.0000
     1.0000   1.0000   1.0000   1.0000   1.0000   1.0000   1.0000   1.0000
     1.0000   1.0000   1.0000   1.0000   1.0000   1.0000   1.0000   1.0000
     1.0000   1.0000   1.0000   1.0000   1.0000   1.0000   1.0000   1.0000
     1.0000   1.0000   1.0000   1.0000   1.0000   1.0000   1.0000   1.0000
     1.0000   1.0000   1.0000   1.0000   1.0000   1.0000   1.0000   1.0000
     1.0000   1.0000   1.0000   1.0000   1.0000   1.0000   1.0000   1.0000
     1.0000   1.0000   1.0000   1.0000   1.0000   1.0000   1.0000   1.0000
     1.0000   1.0000   1.0000   1.0000   1.0000   1.0000   1.0000   1.0000
     0.0000   0.0000   0.0000   0.0000   0.0000   0.0000   0.0000   0.0000
     0.0000   0.0000   0.0000   0.0000   0.0000   0.0000   0.0000   0.0000
     0.0000   0.0000   0.0000   0.0000   0.0000   0.0000   0.0000   0.0000
     0.0000   0.0000   0.0000   0.0000   0.0000   0.0000   0.0000   0.0000
     0.0000   0.0000   0.0000   0.0000   0.0000   0.0000   0.0000   0.0000
     0.0000   0.0000   0.0000   0.0000   0.0000   0.0000   0.0000   0.0000
     0.0000   0.0000   0.0000   0.0000   0.0000   0.0000   0.0000   0.0000
     0.0000   0.0000   0.0000   0.0000   0.0000   0.0000   0.0000   0.0000
     0.0000   0.0000   0.0000   0.0000   0.0000   0.0000   0.0000   0.0000
     0.0000   0.0000   0.0000   0.0000   0.0000   0.0000   0.0000   0.0000
     0.0000   0.0000   0.0000   0.0000   0.0000   0.0000   0.0000   0.0000
     0.0000   0.0000   0.0000   0.0000   0.0000   0.0000   0.0000   0.0000
     0.0000   0.0000   0.0000   0.0000   0.0000   0.0000   0.0000   0.0000
     0.0000   0.0000   0.0000   0.0000   0.0000   0.0000   0.0000   0.0000
     0.0000   0.0000   0.0000   0.0000   0.0000   0.0000   0.0000   0.0000
     0.0000   0.0000   0.0000   0.0000   0.0000   0.0000   0.0000   0.0000
     0.0000   0.0000   0.0000   0.0000   0.0000   0.0000   0.0000   0.0000
     0.0000   0.0000   0.0000   0.0000   0.0000   0.0000   0.0000   0.0000
     0.0000   0.0000   0.0000   0.0000   0.0000   0.0000   0.0000   0.0000
     0.0000   0.0000   0.0000   0.0000   0.0000   0.0000   0.0000   0.0000

     highest occupied, lowest unoccupied level (ev):     9.0766   11.6861

!    total energy              =  -41209.98621320 Ry
     estimated scf accuracy    <          6.3E-10 Ry

     total magnetization       =     2.00 Bohr mag/cell
     absolute magnetization    =     2.42 Bohr mag/cell

     convergence has been achieved in   2 iterations

     Using ACE for calculation of exact exchange
     ACE projected onto  1400 (nbndproj) and applied to  1400 (nbnd) bands

!!   total energy              =  -41209.98621320 Ry
     Harris-Foulkes estimate   =  -41209.98621320 Ry
     est. exchange err (dexx)  =          5.7E-10 Ry
     - averaged Fock potential =    1963.49601592 Ry
     + Fock energy (ACE)       =    -981.74800910 Ry

     EXX self-consistency reached

     Writing all to output data dir ./pwscf.save/ :
     XML data file, charge density, pseudopotentials, collected wavefunctions

     init_run     :      6.39s CPU      7.99s WALL (       1 calls)
     electrons    :   2691.10s CPU   2978.60s WALL (      18 calls)

     Called by init_run:
     aceinit0     :      0.00s CPU      0.00s WALL (       1 calls)
     wfcinit      :      5.75s CPU      7.28s WALL (       1 calls)
     wfcinit:atom :      0.05s CPU      0.12s WALL (       2 calls)
     wfcinit:wfcr :      5.43s CPU      6.58s WALL (       2 calls)
     potinit      :      0.10s CPU      0.14s WALL (       1 calls)
     hinit0       :      0.44s CPU      0.46s WALL (       1 calls)

     Called by electrons:
     c_bands      :   2662.39s CPU   2946.45s WALL (      48 calls)
     sum_band     :     22.54s CPU     24.46s WALL (      48 calls)
     v_of_rho     :      5.11s CPU      5.61s WALL (      50 calls)
     v_h          :      0.30s CPU      0.36s WALL (      50 calls)
     v_xc         :      4.81s CPU      5.25s WALL (      50 calls)
     mix_rho      :      0.53s CPU      0.61s WALL (      48 calls)

     Called by c_bands:
     init_us_2    :     15.16s CPU     15.25s WALL (     194 calls)
     init_us_2:cp :     15.16s CPU     15.25s WALL (     194 calls)
     regterg      :   2638.54s CPU   2921.77s WALL (      96 calls)

     Called by sum_band:
     sum_band:wei :      0.00s CPU      0.00s WALL (      48 calls)
     sum_band:loo :     22.03s CPU     23.04s WALL (      48 calls)
     sum_band:buf :      4.84s CPU      4.85s WALL (      96 calls)
     sum_band:ini :      7.48s CPU      7.49s WALL (      96 calls)

     Called by *egterg:
     rdiaghg      :   1482.11s CPU   1499.31s WALL (     492 calls)
     regterg:over :     73.50s CPU    112.60s WALL (     430 calls)
     regterg:upda :     34.72s CPU     48.19s WALL (     430 calls)
     regterg:last :     73.52s CPU    107.77s WALL (     202 calls)
     h_psi        :    877.78s CPU    931.27s WALL (     528 calls)
     g_psi        :      2.28s CPU      2.31s WALL (     430 calls)

     Called by h_psi:
     h_psi:calbec :    174.21s CPU    185.19s WALL (     528 calls)
     vloc_psi     :    262.45s CPU    290.41s WALL (     528 calls)
     add_vuspsi   :    187.37s CPU    189.24s WALL (     528 calls)

     General routines
     calbec       :    332.42s CPU    353.38s WALL (    1008 calls)
     fft          :      1.69s CPU      2.19s WALL (     630 calls)
     ffts         :      0.09s CPU      0.20s WALL (      48 calls)
     fftw         :    246.89s CPU    273.19s WALL (  279258 calls)
     fftc         :   6098.44s CPU   7341.96s WALL ( 7868700 calls)
     fftcw        :     16.94s CPU     24.58s WALL (   34812 calls)

     Parallel routines

     EXX routines
     exx_grid     :      0.00s CPU      0.00s WALL (       1 calls)
     exxinit      :     31.36s CPU     58.13s WALL (      18 calls)
     vexx         :   7204.88s CPU   9624.91s WALL (      36 calls)
     matcalc      :    160.42s CPU    170.45s WALL (     480 calls)
     aceupdate    :     17.17s CPU     17.49s WALL (      36 calls)
     vexxace      :    362.28s CPU    381.44s WALL (     374 calls)
     aceinit      :   7239.34s CPU   9661.25s WALL (      36 calls)

     PWSCF        :      2h48m CPU      3h34m WALL


   This run was terminated on:   9:27:47  28Dec2024            

=------------------------------------------------------------------------------=
   JOB DONE.
=------------------------------------------------------------------------------=
