
                                 *****************
                                 * O   R   C   A *
                                 *****************

                                            #,                                       
                                            ###                                      
                                            ####                                     
                                            #####                                    
                                            ######                                   
                                           ########,                                 
                                     ,,################,,,,,                         
                               ,,#################################,,                 
                          ,,##########################################,,             
                       ,#########################################, ''#####,          
                    ,#############################################,,   '####,        
                  ,##################################################,,,,####,       
                ,###########''''           ''''###############################       
              ,#####''   ,,,,##########,,,,          '''####'''          '####       
            ,##' ,,,,###########################,,,                        '##       
           ' ,,###''''                  '''############,,,                           
         ,,##''                                '''############,,,,        ,,,,,,###''
      ,#''                                            '''#######################'''  
     '                                                          ''''####''''         
             ,#######,   #######,   ,#######,      ##                                
            ,#'     '#,  ##    ##  ,#'     '#,    #''#        ######   ,####,        
            ##       ##  ##   ,#'  ##            #'  '#       #        #'  '#        
            ##       ##  #######   ##           ,######,      #####,   #    #        
            '#,     ,#'  ##    ##  '#,     ,#' ,#      #,         ##   #,  ,#        
             '#######'   ##     ##  '#######'  #'      '#     #####' # '####'        



                  #######################################################
                  #                        -***-                        #
                  #          Department of theory and spectroscopy      #
                  #    Directorship and core code : Frank Neese         #
                  #        Max Planck Institute fuer Kohlenforschung    #
                  #                Kaiser Wilhelm Platz 1               #
                  #                 D-45470 Muelheim/Ruhr               #
                  #                      Germany                        #
                  #                                                     #
                  #                  All rights reserved                #
                  #                        -***-                        #
                  #######################################################


                         Program Version 5.0.1 -  RELEASE  -


 With contributions from (in alphabetic order):
   Daniel Aravena         : Magnetic Suceptibility
   Michael Atanasov       : Ab Initio Ligand Field Theory (pilot matlab implementation)
   Alexander A. Auer      : GIAO ZORA, VPT2 properties, NMR spectrum
   Ute Becker             : Parallelization
   Giovanni Bistoni       : ED, misc. LED, open-shell LED, HFLD
   Martin Brehm           : Molecular dynamics
   Dmytro Bykov           : SCF Hessian
   Vijay G. Chilkuri      : MRCI spin determinant printing, contributions to CSF-ICE
   Dipayan Datta          : RHF DLPNO-CCSD density
   Achintya Kumar Dutta   : EOM-CC, STEOM-CC
   Dmitry Ganyushin       : Spin-Orbit,Spin-Spin,Magnetic field MRCI
   Miquel Garcia          : C-PCM and meta-GGA Hessian, CC/C-PCM, Gaussian charge scheme
   Yang Guo               : DLPNO-NEVPT2, F12-NEVPT2, CIM, IAO-localization
   Andreas Hansen         : Spin unrestricted coupled pair/coupled cluster methods
   Benjamin Helmich-Paris : MC-RPA, TRAH-SCF, COSX integrals
   Lee Huntington         : MR-EOM, pCC
   Robert Izsak           : Overlap fitted RIJCOSX, COSX-SCS-MP3, EOM
   Marcus Kettner         : VPT2
   Christian Kollmar      : KDIIS, OOCD, Brueckner-CCSD(T), CCSD density, CASPT2, CASPT2-K
   Simone Kossmann        : Meta GGA functionals, TD-DFT gradient, OOMP2, MP2 Hessian
   Martin Krupicka        : Initial AUTO-CI
   Lucas Lang             : DCDCAS
   Marvin Lechner         : AUTO-CI (C++ implementation), FIC-MRCC
   Dagmar Lenk            : GEPOL surface, SMD
   Dimitrios Liakos       : Extrapolation schemes; Compound Job, initial MDCI parallelization
   Dimitrios Manganas     : Further ROCIS development; embedding schemes
   Dimitrios Pantazis     : SARC Basis sets
   Anastasios Papadopoulos: AUTO-CI, single reference methods and gradients
   Taras Petrenko         : DFT Hessian,TD-DFT gradient, ASA, ECA, R-Raman, ABS, FL, XAS/XES, NRVS
   Peter Pinski           : DLPNO-MP2, DLPNO-MP2 Gradient
   Christoph Reimann      : Effective Core Potentials
   Marius Retegan         : Local ZFS, SOC
   Christoph Riplinger    : Optimizer, TS searches, QM/MM, DLPNO-CCSD(T), (RO)-DLPNO pert. Triples
   Tobias Risthaus        : Range-separated hybrids, TD-DFT gradient, RPA, STAB
   Michael Roemelt        : Original ROCIS implementation
   Masaaki Saitow         : Open-shell DLPNO-CCSD energy and density
   Barbara Sandhoefer     : DKH picture change effects
   Avijit Sen             : IP-ROCIS
   Kantharuban Sivalingam : CASSCF convergence, NEVPT2, FIC-MRCI
   Bernardo de Souza      : ESD, SOC TD-DFT
   Georgi Stoychev        : AutoAux, RI-MP2 NMR, DLPNO-MP2 response
   Willem Van den Heuvel  : Paramagnetic NMR
   Boris Wezisla          : Elementary symmetry handling
   Frank Wennmohs         : Technical directorship


 We gratefully acknowledge several colleagues who have allowed us to
 interface, adapt or use parts of their codes:
   Stefan Grimme, W. Hujo, H. Kruse, P. Pracht,  : VdW corrections, initial TS optimization,
                  C. Bannwarth, S. Ehlert          DFT functionals, gCP, sTDA/sTD-DF
   Ed Valeev, F. Pavosevic, A. Kumar             : LibInt (2-el integral package), F12 methods
   Garnet Chan, S. Sharma, J. Yang, R. Olivares  : DMRG
   Ulf Ekstrom                                   : XCFun DFT Library
   Mihaly Kallay                                 : mrcc  (arbitrary order and MRCC methods)
   Jiri Pittner, Ondrej Demel                    : Mk-CCSD
   Frank Weinhold                                : gennbo (NPA and NBO analysis)
   Christopher J. Cramer and Donald G. Truhlar   : smd solvation model
   Lars Goerigk                                  : TD-DFT with DH, B97 family of functionals
   V. Asgeirsson, H. Jonsson                     : NEB implementation
   FAccTs GmbH                                   : IRC, NEB, NEB-TS, DLPNO-Multilevel, CI-OPT
                                                   MM, QMMM, 2- and 3-layer-ONIOM, Crystal-QMMM,
                                                   LR-CPCM, SF, NACMEs, symmetry and pop. for TD-DFT,
                                                   nearIR, NL-DFT gradient (VV10), updates on ESD,
                                                   ML-optimized integration grids
   S Lehtola, MJT Oliveira, MAL Marques          : LibXC Library
   Liviu Ungur et al                             : ANISO software


 Your calculation uses the libint2 library for the computation of 2-el integrals
 For citations please refer to: http://libint.valeyev.net

 Your ORCA version has been built with support for libXC version: 5.1.0
 For citations please refer to: https://tddft.org/programs/libxc/

 This ORCA versions uses:
   CBLAS   interface :  Fast vector & matrix operations
   LAPACKE interface :  Fast linear algebra routines
   SCALAPACK package :  Parallel linear algebra routines
   Shared memory     :  Shared parallel matrices
   BLAS/LAPACK       :  OpenBLAS 0.3.15  USE64BITINT DYNAMIC_ARCH NO_AFFINITY SkylakeX SINGLE_THREADED
        Core in use  :  SkylakeX
   Copyright (c) 2011-2014, The OpenBLAS Project


================================================================================

cite the ECPs for Mo [Def2-ECP] as follows:
Ce-Yb(ecp-28): M. Dolg, H. Stoll, H.Preuss, J. Chem. Phys., 1989, 90, 1730-1734.
Y-Cd(ecp-28), Hf-Hg(ecp-46): D. Andrae,U. Haeussermann, M. Dolg, H. Stoll, H. Preuss, Theor. Chim. Acta, 1990, 77, 123-141.
In-Sb(ecp-28), Tl-Bi(ecp-46): B. Metz, H. Stoll, M. Dolg, J. Chem. Phys., 2000, 113, 2563-2569.
Te-Xe(ecp-28), Po-Rn(ecp-46): K. A. Peterson, D. Figgen, E. Goll, H. Stoll, M. Dolg, J. Chem. Phys., 2003, 119, 11113-11123.
Rb(ecp-28), Cs(ecp-46): T. Leininger, A. Nicklass, W. Kuechle, H. Stoll, M. Dolg, A. Bergner, Chem. Phys. Lett., 1996, 255, 274-280.
Sr(ecp-28), Ba(ecp-46): M. Kaupp, P. V. Schleyer, H. Stoll and H. Preuss, J. Chem. Phys., 1991, 94, 1360-1366.
La(ecp-46): M. Dolg, H. Stoll, A. Savin, H. Preuss, Theor. Chim. Acta, 1989, 75, 173-194.
Lu(ecp-28): X. Cao, M. Dolg, J. Chem. Phys., 2001, 115, 7348-7355.

ECP parameters for Mo [Def2-ECP] have been obtained from:
TURBOMOLE (7.0.2)

----- Orbital basis set information -----
Your calculation utilizes the basis: def2-TZVP
   F. Weigend and R. Ahlrichs, Phys. Chem. Chem. Phys. 7, 3297 (2005).

----- AuxJ basis set information -----
Your calculation utilizes the auxiliary basis: def2/J
   F. Weigend, Phys. Chem. Chem. Phys. 8, 1057 (2006).

================================================================================
                                        WARNINGS
                       Please study these warnings very carefully!
================================================================================


WARNING: your system is open-shell and RHF/RKS was chosen
  ===> : WILL SWITCH to UHF/UKS


INFO   : the flag for use of the SHARK integral package has been found!

================================================================================
                                       INPUT FILE
================================================================================
NAME = zfs.in
|  1> 
|  2> # Use EPR-II is a special basis set for epr, autoaux creates a large auxiliary basis set
|  3> !PBE0 def2-TZVP EXTREMESCF #MORead #EPR-II AUTOAUX RIJCOSX
|  4> 
|  5> #%moinp "zfs.gbw" 
|  6> 
|  7> # geometry
|  8> * xyz +2 3
|  9>     H          8.123923766       6.745265323      13.761754883 Z=1.5
| 10>     H          8.124396883      13.879055083      11.169538189 Z=1.5
| 11>     H          9.584640360      11.349838010      11.169538518 Z=1.5
| 12>     H          9.743876961       9.378955903      18.686833160 Z=1.5
| 13>     H         11.171488811       8.554724056      16.376927908 Z=1.5
| 14>     H          4.869965412      13.879055060      11.169538196 Z=1.5
| 15>     H          3.409720796      11.349837456      11.169538226 Z=1.5
| 16>     H          6.497180484      15.002399158      18.686833160 Z=1.5
| 17>     H          7.957424551       8.531418023      11.169538444 Z=1.5
| 18>     H          3.250483921       9.378955903      18.686833160 Z=1.5
| 19>     H          1.822872227       8.554723876      16.376927780 Z=1.5
| 20>     H          9.588000541      14.916323833      13.761754833 Z=1.5
| 21>     H         11.214743861      12.098721664      13.761754850 Z=1.5
| 22>     H          3.406361614      14.916323441      13.761755145 Z=1.5
| 23>     H          4.870437152       6.745265293      13.761754872 Z=1.5
| 24>     H          5.036936227       8.531417626      11.169538222 Z=1.5
| 25>     H          6.497181120      16.650863127      16.376927674 Z=1.5
| 26>     H          6.497181118      11.253436531      21.284847404 Z=1.5
| 27>     H          1.779618098      12.098721370      13.761755046 Z=1.5
| 28>     H          2.396506609      11.749372343      16.642696811 Z=0.5
| 29>     H          8.111514180      13.174266729      19.214533157 Z=0.5
| 30>     H          8.967834538      11.691075677      19.214532916 Z=0.5
| 31>     H          9.750036136       9.375399902      12.643786581 Z=0.5
| 32>     H         10.608015534       8.880045409      14.026994037 Z=0.5
| 33>     H          4.882847473      13.174266738      19.214533161 Z=0.5
| 34>     H          4.026526453      11.691075375      19.214533137 Z=0.5
| 35>     H          7.353501108       8.894968602      19.214532974 Z=0.5
| 36>     H          5.640859589       8.894968373      19.214533135 Z=0.5
| 37>     H          2.386345439       8.880045300      14.026994109 Z=0.5
| 38>     H          8.977011281      14.556757025      16.642696922 Z=0.5
| 39>     H         10.597855488      11.749372510      16.642696923 Z=0.5
| 40>     H          4.017350985      14.556756777      16.642696757 Z=0.5
| 41>     H          6.497181118      11.253436531      10.116159569 Z=0.5
| 42>     H          8.118024824       7.454180901      16.642696906 Z=0.5
| 43>     H          3.244324746       9.375399902      12.643786581 Z=0.5
| 44>     H          4.876336379       7.454180902      16.642696905 Z=0.5
| 45>     H          6.497180867      16.000220319      14.026994169 Z=0.5
| 46>     H          6.497180485      15.009511161      12.643786581 Z=0.5
| 47>     Mo          6.497181118      11.253436531      14.279865218
| 48>     O           3.266116188      11.251022194      16.307025381
| 49>     O           8.114804147       8.456459931      16.307025381
| 50>     O           6.497181118      11.253436531      11.173159569
| 51>     O           4.883739649      14.052827804      16.307025381
| 52>     O           9.728246048      11.251022194      16.307025381
| 53>     O           8.110622825      14.052827804      16.307025381
| 54>     O           3.257022448       9.382730924      13.700684885
| 55>     O           4.879557463       8.456459931      16.307025381
| 56>     O           6.497180247       9.401591996      18.857746876
| 57>     O           4.901255087      12.174844809      13.768849413
| 58>     O           4.893435440      12.179359485      18.857746876
| 59>     O           9.737338435       9.382730924      13.700684885
| 60>     O           8.093105642      12.174844809      13.768849413
| 61>     O           8.100925290      12.179359485      18.857746876
| 62>     O           6.497180484      14.994849118      13.700684885
| 63>     O           6.497180248       9.410621347      13.768849413
| 64>     Zn          3.147038892      11.216660122      14.352084892
| 65>     Zn          8.204101220       8.370517013      14.352084892
| 66>     Zn          6.497181118      11.253436531      19.553847404
| 67>     Zn          4.853959436      14.173132795      14.352084892
| 68>     Zn          9.847323341      11.216660122      14.352084892
| 69>     Zn          8.140403048      14.173132795      14.352084892
| 70>     Zn          3.235617146       9.370372568      16.955918284
| 71>     Zn          4.877618325      12.188491500      16.902883173
| 72>     Zn          6.497180246       9.383327966      16.902883173
| 73>     Zn          4.842781417      12.208604597      11.622547336
| 74>     Zn          9.758743735       9.370372568      16.955918284
| 75>     Zn          8.151579315      12.208604597      11.622547336
| 76>     Zn          8.116742406      12.188491500      16.902883173
| 77>     Zn          6.497180485      15.019565829      16.955918284
| 78>     Zn          6.497180245       9.343101772      11.622547336
| 79>     Zn          4.790260382       8.370517013      14.352084892
| 80> *
| 81> 
| 82> 
| 83> # Parallelization
| 84> %PAL NPROCS 32 END
| 85> 
| 86> # ZFS calculation
| 87> %EPRNMR DTENSOR SSANDSO
| 88>     DSS     direct
| 89>     DSOC    cvw
| 90>     PrintLevel 4
| 91> END
| 92> 
| 93> 
| 94> #%basis
| 95> #newgto Mo "SARC-DKH-TZVP" end
| 96> #end
| 97> 
| 98>                          ****END OF INPUT****
================================================================================

                       ****************************
                       * Single Point Calculation *
                       ****************************

---------------------------------
CARTESIAN COORDINATES (ANGSTROEM)
---------------------------------
  H      8.123924    6.745265   13.761755
  H      8.124397   13.879055   11.169538
  H      9.584640   11.349838   11.169539
  H      9.743877    9.378956   18.686833
  H     11.171489    8.554724   16.376928
  H      4.869965   13.879055   11.169538
  H      3.409721   11.349837   11.169538
  H      6.497180   15.002399   18.686833
  H      7.957425    8.531418   11.169538
  H      3.250484    9.378956   18.686833
  H      1.822872    8.554724   16.376928
  H      9.588001   14.916324   13.761755
  H     11.214744   12.098722   13.761755
  H      3.406362   14.916323   13.761755
  H      4.870437    6.745265   13.761755
  H      5.036936    8.531418   11.169538
  H      6.497181   16.650863   16.376928
  H      6.497181   11.253437   21.284847
  H      1.779618   12.098721   13.761755
  H      2.396507   11.749372   16.642697
  H      8.111514   13.174267   19.214533
  H      8.967835   11.691076   19.214533
  H      9.750036    9.375400   12.643787
  H     10.608016    8.880045   14.026994
  H      4.882847   13.174267   19.214533
  H      4.026526   11.691075   19.214533
  H      7.353501    8.894969   19.214533
  H      5.640860    8.894968   19.214533
  H      2.386345    8.880045   14.026994
  H      8.977011   14.556757   16.642697
  H     10.597855   11.749373   16.642697
  H      4.017351   14.556757   16.642697
  H      6.497181   11.253437   10.116160
  H      8.118025    7.454181   16.642697
  H      3.244325    9.375400   12.643787
  H      4.876336    7.454181   16.642697
  H      6.497181   16.000220   14.026994
  H      6.497180   15.009511   12.643787
  Mo     6.497181   11.253437   14.279865
  O      3.266116   11.251022   16.307025
  O      8.114804    8.456460   16.307025
  O      6.497181   11.253437   11.173160
  O      4.883740   14.052828   16.307025
  O      9.728246   11.251022   16.307025
  O      8.110623   14.052828   16.307025
  O      3.257022    9.382731   13.700685
  O      4.879557    8.456460   16.307025
  O      6.497180    9.401592   18.857747
  O      4.901255   12.174845   13.768849
  O      4.893435   12.179359   18.857747
  O      9.737338    9.382731   13.700685
  O      8.093106   12.174845   13.768849
  O      8.100925   12.179359   18.857747
  O      6.497180   14.994849   13.700685
  O      6.497180    9.410621   13.768849
  Zn     3.147039   11.216660   14.352085
  Zn     8.204101    8.370517   14.352085
  Zn     6.497181   11.253437   19.553847
  Zn     4.853959   14.173133   14.352085
  Zn     9.847323   11.216660   14.352085
  Zn     8.140403   14.173133   14.352085
  Zn     3.235617    9.370373   16.955918
  Zn     4.877618   12.188491   16.902883
  Zn     6.497180    9.383328   16.902883
  Zn     4.842781   12.208605   11.622547
  Zn     9.758744    9.370373   16.955918
  Zn     8.151579   12.208605   11.622547
  Zn     8.116742   12.188491   16.902883
  Zn     6.497180   15.019566   16.955918
  Zn     6.497180    9.343102   11.622547
  Zn     4.790260    8.370517   14.352085

----------------------------
CARTESIAN COORDINATES (A.U.)
----------------------------
  NO LB      ZA    FRAG     MASS         X           Y           Z
   0 H     1.5000    0     1.008   15.351991   12.746704   26.005948
   1 H     1.5000    0     1.008   15.352885   26.227613   21.107368
   2 H     1.5000    0     1.008   18.112345   21.448086   21.107369
   3 H     1.5000    0     1.008   18.413259   17.723658   35.312997
   4 H     1.5000    0     1.008   21.111054   16.166086   30.947909
   5 H     1.5000    0     1.008    9.202901   26.227613   21.107368
   6 H     1.5000    0     1.008    6.443438   21.448084   21.107368
   7 H     1.5000    0     1.008   12.277892   28.350426   35.312997
   8 H     1.5000    0     1.008   15.037353   16.122044   21.107369
   9 H     1.5000    0     1.008    6.142524   17.723658   35.312997
  10 H     1.5000    0     1.008    3.444729   16.166085   30.947908
  11 H     1.5000    0     1.008   18.118695   28.187767   26.005948
  12 H     1.5000    0     1.008   21.192795   22.863271   26.005948
  13 H     1.5000    0     1.008    6.437091   28.187766   26.005948
  14 H     1.5000    0     1.008    9.203792   12.746704   26.005948
  15 H     1.5000    0     1.008    9.518430   16.122043   21.107368
  16 H     1.5000    0     1.008   12.277893   31.465571   30.947908
  17 H     1.5000    0     1.008   12.277893   21.265913   40.222532
  18 H     1.5000    0     1.008    3.362991   22.863270   26.005948
  19 H     0.5000    0     1.008    4.528741   22.203096   31.450139
  20 H     0.5000    0     1.008   15.328540   24.895756   36.310205
  21 H     0.5000    0     1.008   16.946751   22.092931   36.310205
  22 H     0.5000    0     1.008   18.424898   17.716938   23.893294
  23 H     0.5000    0     1.008   20.046244   16.780854   26.507177
  24 H     0.5000    0     1.008    9.227244   24.895756   36.310205
  25 H     0.5000    0     1.008    7.609032   22.092931   36.310205
  26 H     0.5000    0     1.008   13.896103   16.809055   36.310205
  27 H     0.5000    0     1.008   10.659680   16.809054   36.310205
  28 H     0.5000    0     1.008    4.509539   16.780854   26.507177
  29 H     0.5000    0     1.008   16.964093   27.508284   31.450139
  30 H     0.5000    0     1.008   20.027044   22.203096   31.450139
  31 H     0.5000    0     1.008    7.591693   27.508284   31.450139
  32 H     0.5000    0     1.008   12.277893   21.265913   19.116771
  33 H     0.5000    0     1.008   15.340844   14.086360   31.450139
  34 H     0.5000    0     1.008    6.130885   17.716938   23.893294
  35 H     0.5000    0     1.008    9.214940   14.086360   31.450139
  36 H     0.5000    0     1.008   12.277892   30.236034   26.507177
  37 H     0.5000    0     1.008   12.277892   28.363865   23.893294
  38 Mo   14.0000*   0    95.940   12.277893   21.265913   26.985034
  39 O     8.0000    0    15.999    6.172065   21.261351   30.815812
  40 O     8.0000    0    15.999   15.334757   15.980393   30.815812
  41 O     8.0000    0    15.999   12.277893   21.265913   21.114212
  42 O     8.0000    0    15.999    9.228930   26.555996   30.815812
  43 O     8.0000    0    15.999   18.383721   21.261351   30.815812
  44 O     8.0000    0    15.999   15.326856   26.555996   30.815812
  45 O     8.0000    0    15.999    6.154880   17.730792   25.890542
  46 O     8.0000    0    15.999    9.221027   15.980393   30.815812
  47 O     8.0000    0    15.999   12.277891   17.766434   35.635977
  48 O     8.0000    0    15.999    9.262030   23.007122   26.019355
  49 O     8.0000    0    15.999    9.247253   23.015654   35.635977
  50 O     8.0000    0    15.999   18.400903   17.730792   25.890542
  51 O     8.0000    0    15.999   15.293753   23.007122   26.019355
  52 O     8.0000    0    15.999   15.308530   23.015654   35.635977
  53 O     8.0000    0    15.999   12.277892   28.336158   25.890542
  54 O     8.0000    0    15.999   12.277891   17.783497   26.019355
  55 Zn   30.0000    0    65.380    5.947042   21.196416   27.121510
  56 Zn   30.0000    0    65.380   15.503504   15.817985   27.121510
  57 Zn   30.0000    0    65.380   12.277893   21.265913   36.951416
  58 Zn   30.0000    0    65.380    9.172654   26.783339   27.121510
  59 Zn   30.0000    0    65.380   18.608744   21.196416   27.121510
  60 Zn   30.0000    0    65.380   15.383132   26.783339   27.121510
  61 Zn   30.0000    0    65.380    6.114430   17.707438   32.042042
  62 Zn   30.0000    0    65.380    9.217363   23.032911   31.941820
  63 Zn   30.0000    0    65.380   12.277891   17.731920   31.941820
  64 Zn   30.0000    0    65.380    9.151531   23.070919   21.963431
  65 Zn   30.0000    0    65.380   18.441353   17.707438   32.042042
  66 Zn   30.0000    0    65.380   15.404252   23.070919   21.963431
  67 Zn   30.0000    0    65.380   15.338420   23.032911   31.941820
  68 Zn   30.0000    0    65.380   12.277892   28.382866   32.042042
  69 Zn   30.0000    0    65.380   12.277891   17.655904   21.963431
  70 Zn   30.0000    0    65.380    9.052280   15.817985   27.121510
* core charge reduced due to ECP

--------------------------------
INTERNAL COORDINATES (ANGSTROEM)
--------------------------------
 H      0   0   0     0.000000000000     0.00000000     0.00000000
 H      1   0   0     7.590160996473     0.00000000     0.00000000
 H      2   1   0     2.920487975403    35.51897763     0.00000000
 H      1   2   3     5.815236062255    82.15833477   104.27195754
 H      4   1   2     2.837797738579    47.09526027   277.75558304
 H      2   1   3     3.254431471000    89.99642816   149.39671568
 H      6   2   1     2.920489004763   120.00000298   340.03029273
 H      4   1   2     6.493392954070   104.65115285    35.58888714
 H      1   2   3     3.152403769021    35.57416349   295.38931845
 H      8   4   1     6.493392997070    60.00000066    61.09129273
 H     10   8   4     2.837797816570   120.20333656   250.36232979
 H      2   1   3     3.152403726820    91.63036173   267.07251617
 H      3   2   1     3.152403791250    93.02757997   271.43581977
 H      6   2   1     3.152403921204   117.66375188    91.83897261
 H      1   2   3     3.253486614000    90.00357184   210.60328466
 H      9   1   2     2.920488324000    93.02757555   265.75310638
 H      8   4   1     2.837797880636   120.20332707   311.45361078
 H      4   1   2     4.561182909479   118.04967423    81.61294128
 H      7   6   2     3.152403839067    93.02757171   124.56856377
 H     19   7   6     2.966887532582   131.52815240   272.83726728
 H      8   4   1     2.495317363951    16.67562231   193.61723994
 H     21   8   4     1.712641308698   163.32436401     0.00000000
 H      3   2   1     2.469649561436   136.54016539   335.79479911
 H     23   3   2     1.701401653773   138.75028661   275.24417730
 H      8   4   1     2.495316915046    71.88051746    73.94781821
 H     25   8   4     1.712641909032   163.32438519   317.81412996
 H      4   1   2     2.495317118089    79.88682390   103.67850942
 H     27   4   1     1.712641519000   163.32439608   292.99618275
 H     11  10   8     2.438344591655   129.01025569    35.34786897
 H     12   2   1     2.966887845103   131.52815128   308.35998549
 H     13   3   2     2.966887817920   131.52814107    87.16274327
 H     14   6   2     2.966887387328   131.52815333   320.78915779
 H      9   1   2     3.263633358055   139.60626526   316.75884234
 H      1   2   3     2.966887769049    96.14554073   120.71747715
 H     29  11  10     1.701401698153   159.86442165     0.00000000
 H     15   1   2     2.966887786734    89.88607524   263.85445474
 H     17   8   4     2.438344426352   129.01025697    35.34789426
 H     37  17   8     1.701401735995   159.86442393     0.00000000
 Mo    23   3   2     4.096930638227    79.55624006    11.69941547
 O     20  19   7     1.056999999913    85.30842586   356.03774684
 O     34   1   2     1.056999999732    85.30841813     0.17584275
 O     33   9   1     1.057000000000    71.16992063    19.96844027
 O     32  14   6     1.056999999812    85.30842991     3.96225111
 O     31  13   3     1.056999999860    85.30841696     3.96227656
 O     30  12   2     1.056999999955    85.30841786   356.03775386
 O     29  11  10     1.057000000116   123.45785490     0.00000000
 O     36  15   1     1.056999999707    85.30841877    89.81546023
 O     28  27   4     1.056999999674    35.89013094   347.68078493
 O     39  23   3     1.912357253274   140.96414316    42.06588309
 O     26  25   8     1.056999999933    35.89011292    12.31920499
 O     24  23   3     1.057000000186    36.40656878    87.86722750
 O     39  23   3     1.912355995632    56.73974721   315.67074911
 O     21   8   4     1.056999999558   127.71424104   350.90270785
 O     38  37  17     1.057000000238    36.40656503     0.00000000
 O     39  23   3     1.912355865246    56.73975351   128.46101316
 Zn    19   7   6     1.731000000048    75.57527023   266.47425128
 Zn     1   2   3     1.730999999857    40.00508146   116.47573541
 Zn    18   4   1     1.731000000000    55.27820594   322.96928748
 Zn    14   6   2     1.731000000218    75.57526840   327.15217158
 Zn    13   3   2     1.731000000254    75.57526543    93.52578046
 Zn    12   2   1     1.730999999787    75.57527434   301.99697658
 Zn    11  10   8     1.730999999608    34.94532969    35.34786891
 Zn    50  26  25     1.954949020341   109.45421766   240.78218560
 Zn    48  28  27     1.954949020332   109.45421730   119.21777983
 Zn     7   6   2     1.730999999903    32.47942402    29.16635394
 Zn     5   4   1     1.731000000113    34.94533195    46.52008439
 Zn     2   1   3     1.730999999438     4.88074135    48.71828401
 Zn    53  21   8     1.954949020349   109.45421846    56.34348530
 Zn    17   8   4     1.731000000269    34.94532785    35.34789452
 Zn     9   1   2     1.730999999372    95.45370901   298.23566435
 Zn    15   1   2     1.731000000094    92.65478551   320.06806853

---------------------------
INTERNAL COORDINATES (A.U.)
---------------------------
 H      0   0   0     0.000000000000     0.00000000     0.00000000
 H      1   0   0    14.343325595704     0.00000000     0.00000000
 H      2   1   0     5.518922450923    35.51897763     0.00000000
 H      1   2   3    10.989203561764    82.15833477   104.27195754
 H      4   1   2     5.362660549376    47.09526027   277.75558304
 H      2   1   3     6.149984201804    89.99642816   149.39671568
 H      6   2   1     5.518924396130   120.00000298   340.03029273
 H      4   1   2    12.270734363127   104.65115285    35.58888714
 H      1   2   3     5.957179786990    35.57416349   295.38931845
 H      8   4   1    12.270734444385    60.00000066    61.09129273
 H     10   8   4     5.362660696758   120.20333656   250.36232979
 H      2   1   3     5.957179707242    91.63036173   267.07251617
 H      3   2   1     5.957179828998    93.02757997   271.43581977
 H      6   2   1     5.957180074576   117.66375188    91.83897261
 H      1   2   3     6.148198680839    90.00357184   210.60328466
 H      9   1   2     5.518923109675    93.02757555   265.75310638
 H      8   4   1     5.362660817825   120.20332707   311.45361078
 H      4   1   2     8.619386545638   118.04967423    81.61294128
 H      7   6   2     5.957179919359    93.02757171   124.56856377
 H     19   7   6     5.606604906725   131.52815240   272.83726728
 H      8   4   1     4.715466435086    16.67562231   193.61723994
 H     21   8   4     3.236423039079   163.32436401     0.00000000
 H      3   2   1     4.666961317873   136.54016539   335.79479911
 H     23   3   2     3.215183169432   138.75028661   275.24417730
 H      8   4   1     4.715465586778    71.88051746    73.94781821
 H     25   8   4     3.236424173546   163.32438519   317.81412996
 H      4   1   2     4.715465970475    79.88682390   103.67850942
 H     27   4   1     3.236423436493   163.32439608   292.99618275
 H     11  10   8     4.607803498357   129.01025569    35.34786897
 H     12   2   1     5.606605497305   131.52815128   308.35998549
 H     13   3   2     5.606605445937   131.52814107    87.16274327
 H     14   6   2     5.606604632236   131.52815333   320.78915779
 H      9   1   2     6.167373248254   139.60626526   316.75884234
 H      1   2   3     5.606605353584    96.14554073   120.71747715
 H     29  11  10     3.215183253298   159.86442165     0.00000000
 H     15   1   2     5.606605387002    89.88607524   263.85445474
 H     17   8   4     4.607803185979   129.01025697    35.34789426
 H     37  17   8     3.215183324808   159.86442393     0.00000000
 Mo    23   3   2     7.742076895920    79.55624006    11.69941547
 O     20  19   7     1.997440523390    85.30842586   356.03774684
 O     34   1   2     1.997440523049    85.30841813     0.17584275
 O     33   9   1     1.997440523555    71.16992063    19.96844027
 O     32  14   6     1.997440523199    85.30842991     3.96225111
 O     31  13   3     1.997440523289    85.30841696     3.96227656
 O     30  12   2     1.997440523470    85.30841786   356.03775386
 O     29  11  10     1.997440523774   123.45785490     0.00000000
 O     36  15   1     1.997440523000    85.30841877    89.81546023
 O     28  27   4     1.997440522938    35.89013094   347.68078493
 O     39  23   3     3.613831478906   140.96414316    42.06588309
 O     26  25   8     1.997440523428    35.89011292    12.31920499
 O     24  23   3     1.997440523906    36.40656878    87.86722750
 O     39  23   3     3.613829102308    56.73974721   315.67074911
 O     21   8   4     1.997440522719   127.71424104   350.90270785
 O     38  37  17     1.997440524004    36.40656503     0.00000000
 O     39  23   3     3.613828855913    56.73975351   128.46101316
 Zn    19   7   6     3.271115937908    75.57527023   266.47425128
 Zn     1   2   3     3.271115937547    40.00508146   116.47573541
 Zn    18   4   1     3.271115937818    55.27820594   322.96928748
 Zn    14   6   2     3.271115938229    75.57526840   327.15217158
 Zn    13   3   2     3.271115938298    75.57526543    93.52578046
 Zn    12   2   1     3.271115937415    75.57527434   301.99697658
 Zn    11  10   8     3.271115937077    34.94532969    35.34786891
 Zn    50  26  25     3.694318254222   109.45421766   240.78218560
 Zn    48  28  27     3.694318254206   109.45421730   119.21777983
 Zn     7   6   2     3.271115937635    32.47942402    29.16635394
 Zn     5   4   1     3.271115938031    34.94533195    46.52008439
 Zn     2   1   3     3.271115936755     4.88074135    48.71828401
 Zn    53  21   8     3.694318254237   109.45421846    56.34348530
 Zn    17   8   4     3.271115938326    34.94532785    35.34789452
 Zn     9   1   2     3.271115936632    95.45370901   298.23566435
 Zn    15   1   2     3.271115937994    92.65478551   320.06806853

---------------------
BASIS SET INFORMATION
---------------------
There are 4 groups of distinct atoms

 Group   1 Type H   : 5s1p contracted to 3s1p pattern {311/1}
 Group   2 Type Mo  : 7s7p5d1f contracted to 6s4p3d1f pattern {211111/4111/311/1}
 Group   3 Type O   : 11s6p2d1f contracted to 5s3p2d1f pattern {62111/411/11/1}
 Group   4 Type Zn  : 17s12p7d1f contracted to 6s5p4d1f pattern {842111/63111/4111/1}

Atom   0H    basis set group =>   1
Atom   1H    basis set group =>   1
Atom   2H    basis set group =>   1
Atom   3H    basis set group =>   1
Atom   4H    basis set group =>   1
Atom   5H    basis set group =>   1
Atom   6H    basis set group =>   1
Atom   7H    basis set group =>   1
Atom   8H    basis set group =>   1
Atom   9H    basis set group =>   1
Atom  10H    basis set group =>   1
Atom  11H    basis set group =>   1
Atom  12H    basis set group =>   1
Atom  13H    basis set group =>   1
Atom  14H    basis set group =>   1
Atom  15H    basis set group =>   1
Atom  16H    basis set group =>   1
Atom  17H    basis set group =>   1
Atom  18H    basis set group =>   1
Atom  19H    basis set group =>   1
Atom  20H    basis set group =>   1
Atom  21H    basis set group =>   1
Atom  22H    basis set group =>   1
Atom  23H    basis set group =>   1
Atom  24H    basis set group =>   1
Atom  25H    basis set group =>   1
Atom  26H    basis set group =>   1
Atom  27H    basis set group =>   1
Atom  28H    basis set group =>   1
Atom  29H    basis set group =>   1
Atom  30H    basis set group =>   1
Atom  31H    basis set group =>   1
Atom  32H    basis set group =>   1
Atom  33H    basis set group =>   1
Atom  34H    basis set group =>   1
Atom  35H    basis set group =>   1
Atom  36H    basis set group =>   1
Atom  37H    basis set group =>   1
Atom  38Mo   basis set group =>   2
Atom  39O    basis set group =>   3
Atom  40O    basis set group =>   3
Atom  41O    basis set group =>   3
Atom  42O    basis set group =>   3
Atom  43O    basis set group =>   3
Atom  44O    basis set group =>   3
Atom  45O    basis set group =>   3
Atom  46O    basis set group =>   3
Atom  47O    basis set group =>   3
Atom  48O    basis set group =>   3
Atom  49O    basis set group =>   3
Atom  50O    basis set group =>   3
Atom  51O    basis set group =>   3
Atom  52O    basis set group =>   3
Atom  53O    basis set group =>   3
Atom  54O    basis set group =>   3
Atom  55Zn   basis set group =>   4
Atom  56Zn   basis set group =>   4
Atom  57Zn   basis set group =>   4
Atom  58Zn   basis set group =>   4
Atom  59Zn   basis set group =>   4
Atom  60Zn   basis set group =>   4
Atom  61Zn   basis set group =>   4
Atom  62Zn   basis set group =>   4
Atom  63Zn   basis set group =>   4
Atom  64Zn   basis set group =>   4
Atom  65Zn   basis set group =>   4
Atom  66Zn   basis set group =>   4
Atom  67Zn   basis set group =>   4
Atom  68Zn   basis set group =>   4
Atom  69Zn   basis set group =>   4
Atom  70Zn   basis set group =>   4
---------------------------------
AUXILIARY/J BASIS SET INFORMATION
---------------------------------
There are 4 groups of distinct atoms

 Group   1 Type H   : 5s2p1d contracted to 3s1p1d pattern {311/2/1}
 Group   2 Type Mo  : 11s5p5d3f3g contracted to 8s5p5d2f3g pattern {41111111/11111/11111/21/111}
 Group   3 Type O   : 12s5p4d2f1g contracted to 6s4p3d1f1g pattern {711111/2111/211/2/1}
 Group   4 Type Zn  : 19s5p5d3f3g contracted to 8s5p5d2f3g pattern {121111111/11111/11111/21/111}

Atom   0H    basis set group =>   1
Atom   1H    basis set group =>   1
Atom   2H    basis set group =>   1
Atom   3H    basis set group =>   1
Atom   4H    basis set group =>   1
Atom   5H    basis set group =>   1
Atom   6H    basis set group =>   1
Atom   7H    basis set group =>   1
Atom   8H    basis set group =>   1
Atom   9H    basis set group =>   1
Atom  10H    basis set group =>   1
Atom  11H    basis set group =>   1
Atom  12H    basis set group =>   1
Atom  13H    basis set group =>   1
Atom  14H    basis set group =>   1
Atom  15H    basis set group =>   1
Atom  16H    basis set group =>   1
Atom  17H    basis set group =>   1
Atom  18H    basis set group =>   1
Atom  19H    basis set group =>   1
Atom  20H    basis set group =>   1
Atom  21H    basis set group =>   1
Atom  22H    basis set group =>   1
Atom  23H    basis set group =>   1
Atom  24H    basis set group =>   1
Atom  25H    basis set group =>   1
Atom  26H    basis set group =>   1
Atom  27H    basis set group =>   1
Atom  28H    basis set group =>   1
Atom  29H    basis set group =>   1
Atom  30H    basis set group =>   1
Atom  31H    basis set group =>   1
Atom  32H    basis set group =>   1
Atom  33H    basis set group =>   1
Atom  34H    basis set group =>   1
Atom  35H    basis set group =>   1
Atom  36H    basis set group =>   1
Atom  37H    basis set group =>   1
Atom  38Mo   basis set group =>   2
Atom  39O    basis set group =>   3
Atom  40O    basis set group =>   3
Atom  41O    basis set group =>   3
Atom  42O    basis set group =>   3
Atom  43O    basis set group =>   3
Atom  44O    basis set group =>   3
Atom  45O    basis set group =>   3
Atom  46O    basis set group =>   3
Atom  47O    basis set group =>   3
Atom  48O    basis set group =>   3
Atom  49O    basis set group =>   3
Atom  50O    basis set group =>   3
Atom  51O    basis set group =>   3
Atom  52O    basis set group =>   3
Atom  53O    basis set group =>   3
Atom  54O    basis set group =>   3
Atom  55Zn   basis set group =>   4
Atom  56Zn   basis set group =>   4
Atom  57Zn   basis set group =>   4
Atom  58Zn   basis set group =>   4
Atom  59Zn   basis set group =>   4
Atom  60Zn   basis set group =>   4
Atom  61Zn   basis set group =>   4
Atom  62Zn   basis set group =>   4
Atom  63Zn   basis set group =>   4
Atom  64Zn   basis set group =>   4
Atom  65Zn   basis set group =>   4
Atom  66Zn   basis set group =>   4
Atom  67Zn   basis set group =>   4
Atom  68Zn   basis set group =>   4
Atom  69Zn   basis set group =>   4
Atom  70Zn   basis set group =>   4
-------------------------
ECP PARAMETER INFORMATION
-------------------------

 Group 1, Type Mo ECP Def2-ECP (replacing 28 core electrons, lmax=3)

Atom  38Mo   ECP group =>   1



           ************************************************************
           *        Program running with 32 parallel MPI-processes    *
           *              working on a shared directory               *
           ************************************************************
------------------------------------------------------------------------------
                           ORCA GTO INTEGRAL CALCULATION
                           -- RI-GTO INTEGRALS CHOSEN --
------------------------------------------------------------------------------
------------------------------------------------------------------------------
                   ___                                                        
                  /   \      - P O W E R E D   B Y -                         
                 /     \                                                     
                 |  |  |   _    _      __       _____    __    __             
                 |  |  |  | |  | |    /  \     |  _  \  |  |  /  |          
                  \  \/   | |  | |   /    \    | | | |  |  | /  /          
                 / \  \   | |__| |  /  /\  \   | |_| |  |  |/  /          
                |  |  |   |  __  | /  /__\  \  |    /   |      \           
                |  |  |   | |  | | |   __   |  |    \   |  |\   \          
                \     /   | |  | | |  |  |  |  | |\  \  |  | \   \       
                 \___/    |_|  |_| |__|  |__|  |_| \__\ |__|  \__/        
                                                                              
                      - O R C A' S   B I G   F R I E N D -                    
                                      &                                       
                       - I N T E G R A L  F E E D E R -                       
                                                                              
 v1 FN, 2020, v2 2021                                                         
------------------------------------------------------------------------------


Reading SHARK input file zfs.SHARKINP.tmp ... ok
----------------------
SHARK INTEGRAL PACKAGE
----------------------

Number of atoms                             ...     71
Number of basis functions                   ...   1532
Number of shells                            ...    598
Maximum angular momentum                    ...      3
Integral batch strategy                     ... SHARK/LIBINT Hybrid
RI-J (if used) integral strategy            ... SPLIT-RIJ (Revised 2003 algorithm where possible)
Printlevel                                  ...      1
Contraction scheme used                     ... SEGMENTED contraction
Coulomb Range Separation                    ... NOT USED
Exchange Range Separation                   ... NOT USED
Finite Nucleus Model                        ... NOT USED
Auxiliary Coulomb fitting basis             ... AVAILABLE
   # of basis functions in Aux-J            ...   2715
   # of shells in Aux-J                     ...    821
   Maximum angular momentum in Aux-J        ...      4
Auxiliary J/K fitting basis                 ... NOT available
Auxiliary Correlation fitting basis         ... NOT available
Auxiliary 'external' fitting basis          ... NOT available
Integral threshold                          ...     3.000000e-16
Primitive cut-off                           ...     3.000000e-16
Primitive pair pre-selection threshold      ...     3.000000e-16

Calculating pre-screening integrals         ... done (  1.7 sec) Dimension = 598
Organizing shell pair data                  ... done (  0.9 sec)
Shell pair information
Total number of shell pairs                 ...    179101
Shell pairs after pre-screening             ...    116191
Total number of primitive shell pairs       ...    674800
Primitive shell pairs kept                  ...    254836
          la=0 lb=0:  28709 shell pairs
          la=1 lb=0:  33468 shell pairs
          la=1 lb=1:   9840 shell pairs
          la=2 lb=0:  19401 shell pairs
          la=2 lb=1:  11393 shell pairs
          la=2 lb=2:   3493 shell pairs
          la=3 lb=0:   5096 shell pairs
          la=3 lb=1:   2910 shell pairs
          la=3 lb=2:   1730 shell pairs
          la=3 lb=3:    151 shell pairs

Calculating one electron integrals          ... done (  0.2 sec)
Calculating ECP integrals                   ... done (  4.2 sec)
Calculating RI/J V-Matrix + Cholesky decomp.... done (  1.0 sec)
Calculating Nuclear repulsion               ... done (  0.0 sec) ENN=  25102.289648537320 Eh

SHARK setup successfully completed in   8.2 seconds

Maximum memory used throughout the entire GTOINT-calculation: 176.8 MB


           ************************************************************
           *        Program running with 32 parallel MPI-processes    *
           *              working on a shared directory               *
           ************************************************************
-------------------------------------------------------------------------------
                                 ORCA SCF
-------------------------------------------------------------------------------

------------
SCF SETTINGS
------------
Hamiltonian:
 Density Functional     Method          .... DFT(GTOs)
 Exchange Functional    Exchange        .... PBE
   PBE kappa parameter   XKappa         ....  0.804000
   PBE mue parameter    XMuePBE         ....  0.219520
 Correlation Functional Correlation     .... PBE
   PBE beta parameter  CBetaPBE         ....  0.066725
 LDA part of GGA corr.  LDAOpt          .... PW91-LDA
 Gradients option       PostSCFGGA      .... off
 Hybrid DFT is turned on
   Fraction HF Exchange ScalHFX         ....  0.250000
   Scaling of DF-GGA-X  ScalDFX         ....  0.750000
   Scaling of DF-GGA-C  ScalDFC         ....  1.000000
   Scaling of DF-LDA-C  ScalLDAC        ....  1.000000
   Perturbative correction              ....  0.000000
   Density functional embedding theory  .... OFF
   NL short-range parameter             ....  6.900000
 RI-approximation to the Coulomb term is turned on
   Number of AuxJ basis functions       .... 2715
   RIJ-COSX (HFX calculated with COS-X)).... on


General Settings:
 Integral files         IntName         .... zfs
 Hartree-Fock type      HFTyp           .... UHF
 Total Charge           Charge          ....    2
 Multiplicity           Mult            ....    3
 Number of Electrons    NEL             ....  658
 Basis Dimension        Dim             .... 1532
 Nuclear Repulsion      ENuc            ....  25102.2896485373 Eh

Convergence Acceleration:
 DIIS                   CNVDIIS         .... on
   Start iteration      DIISMaxIt       ....    12
   Startup error        DIISStart       ....  0.200000
   # of expansion vecs  DIISMaxEq       ....     5
   Bias factor          DIISBfac        ....   1.050
   Max. coefficient     DIISMaxC        ....  10.000
 Trust-Rad. Augm. Hess. CNVTRAH         .... auto
   Auto Start mean grad. ratio tolernc. ....  1.125000
   Auto Start start iteration           ....    20
   Auto Start num. interpolation iter.  ....    10
   Max. Number of Micro iterations      ....    16
   Max. Number of Macro iterations      .... Maxiter - #DIIS iter
   Number of Davidson start vectors     ....     2
   Converg. threshold I  (grad. norm)   ....   1.000e-09
   Converg. threshold II (energy diff.) ....   1.000e-14
   Grad. Scal. Fac. for Micro threshold ....   0.100
   Minimum threshold for Micro iter.    ....   0.010
   NR start threshold (gradient norm)   ....   0.001
   Initial trust radius                 ....   0.400
   Minimum AH scaling param. (alpha)    ....   1.000
   Maximum AH scaling param. (alpha)    .... 1000.000
   Orbital update algorithm             .... Taylor
   White noise on init. David. guess    .... on
   Maximum white noise                  ....   0.010
   Quad. conv. algorithm                .... NR
 SOSCF                  CNVSOSCF        .... off
 Level Shifting         CNVShift        .... on
   Level shift para.    LevelShift      ....    0.2500
   Turn off err/grad.   ShiftErr        ....    0.0010
 Zerner damping         CNVZerner       .... off
 Static damping         CNVDamp         .... on
   Fraction old density DampFac         ....    0.7000
   Max. Damping (<1)    DampMax         ....    0.9800
   Min. Damping (>=0)   DampMin         ....    0.0000
   Turn off err/grad.   DampErr         ....    0.1000
 Fernandez-Rico         CNVRico         .... off

SCF Procedure:
 Maximum # iterations   MaxIter         ....   125
 SCF integral mode      SCFMode         .... Direct
   Integral package                     .... SHARK and LIBINT hybrid scheme
 Reset frequency        DirectResetFreq ....    20
 Integral Threshold     Thresh          ....  3.000e-16 Eh
 Primitive CutOff       TCut            ....  3.000e-16 Eh

Convergence Tolerance:
 Convergence Check Mode ConvCheckMode   .... All-Criteria
 Convergence forced     ConvForced      .... 0
 Energy Change          TolE            ....  1.000e-14 Eh
 Max Density Change     TolMaxP         ....  1.000e-14
 RMS Density Change     TolRMSP         ....  1.000e-14
 DIIS Error             TolErr          ....  1.000e-14


Diagonalization of the overlap matrix:
Smallest eigenvalue                        ... 5.547e-05
Time for diagonalization                   ...    2.421 sec
Threshold for overlap eigenvalues          ... 1.000e-08
Number of eigenvalues below threshold      ... 0
Time for construction of square roots      ...    0.334 sec
Total time needed                          ...    2.764 sec

Time for model grid setup =    0.886 sec

------------------------------
INITIAL GUESS: MODEL POTENTIAL
------------------------------
Loading Hartree-Fock densities                     ... done
  calling /data/groups/ping/kli103/programs/orca/orca/orca zfs_atom42.inp > zfs_atom42.out in order to generate an atomic fitting density for atom 38 (Mo with ECP) on-the-fly... 
    atom 38 (Mo), assumed electronic state with S=5: 1s2 2s2 2p6 3s2 3p6 4s2 3d10 4p6 5s2 4d4           ... done
Calculating cut-offs                               ... done
Initializing the effective Hamiltonian             ... done
Setting up the integral package (SHARK)            ... done
Starting the Coulomb interaction                   ... done (   1.0 sec)
Reading the grid                                   ... done
Mapping shells                                     ... done
Starting the XC term evaluation                    ... done (   0.5 sec)
  promolecular density results
     # of electrons  =    687.982268301
     EX              =  -1374.503168915
     EC              =    -30.695298552
     EX+EC           =  -1405.198467466
Transforming the Hamiltonian                       ... done (   0.2 sec)
Diagonalizing the Hamiltonian                      ... done (   0.4 sec)
Back transforming the eigenvectors                 ... done (   0.1 sec)
Now organizing SCF variables                       ... done
                      ------------------
                      INITIAL GUESS DONE (   5.2 sec)
                      ------------------
-------------------
DFT GRID GENERATION
-------------------

General Integration Accuracy     IntAcc      ... 4.388
Radial Grid Type                 RadialGrid  ... OptM3 with GC (2021)
Angular Grid (max. ang.)         AngularGrid ... 4 (Lebedev-302)
Angular grid pruning method      GridPruning ... 4 (adaptive)
Weight generation scheme         WeightScheme... Becke
Basis function cutoff            BFCut       ... 3.0000e-16
Integration weight cutoff        WCut        ... 1.0000e-14
Angular grids for H and He will be reduced by one unit
Partially contracted basis set               ... off
Rotationally invariant grid construction     ... off

Total number of grid points                  ...   395053
Total number of batches                      ...     6212
Average number of points per batch           ...       63
Average number of grid points per atom       ...     5564
Time for grid setup =    2.761 sec

--------------------
COSX GRID GENERATION
--------------------

GRIDX 1
-------
General Integration Accuracy     IntAcc      ... 3.816
Radial Grid Type                 RadialGrid  ... OptM3 with GC (2021)
Angular Grid (max. ang.)         AngularGrid ... 1 (Lebedev-50)
Angular grid pruning method      GridPruning ... 4 (adaptive)
Weight generation scheme         WeightScheme... Becke
Basis function cutoff            BFCut       ... 3.0000e-16
Integration weight cutoff        WCut        ... 1.0000e-14
Angular grids for H and He will be reduced by one unit
Partially contracted basis set               ... on
Rotationally invariant grid construction     ... off

Total number of grid points                  ...    46860
Total number of batches                      ...      774
Average number of points per batch           ...       60
Average number of grid points per atom       ...      660
UseSFitting                                  ... on

GRIDX 2
-------
General Integration Accuracy     IntAcc      ... 4.020
Radial Grid Type                 RadialGrid  ... OptM3 with GC (2021)
Angular Grid (max. ang.)         AngularGrid ... 2 (Lebedev-110)
Angular grid pruning method      GridPruning ... 4 (adaptive)
Weight generation scheme         WeightScheme... Becke
Basis function cutoff            BFCut       ... 3.0000e-16
Integration weight cutoff        WCut        ... 1.0000e-14
Angular grids for H and He will be reduced by one unit
Partially contracted basis set               ... on
Rotationally invariant grid construction     ... off

Total number of grid points                  ...    97473
Total number of batches                      ...     1554
Average number of points per batch           ...       62
Average number of grid points per atom       ...     1373
UseSFitting                                  ... on

GRIDX 3
-------
General Integration Accuracy     IntAcc      ... 4.338
Radial Grid Type                 RadialGrid  ... OptM3 with GC (2021)
Angular Grid (max. ang.)         AngularGrid ... 3 (Lebedev-194)
Angular grid pruning method      GridPruning ... 4 (adaptive)
Weight generation scheme         WeightScheme... Becke
Basis function cutoff            BFCut       ... 3.0000e-16
Integration weight cutoff        WCut        ... 1.0000e-14
Angular grids for H and He will be reduced by one unit
Partially contracted basis set               ... on
Rotationally invariant grid construction     ... off

Total number of grid points                  ...   209308
Total number of batches                      ...     3302
Average number of points per batch           ...       63
Average number of grid points per atom       ...     2948
UseSFitting                                  ... on

Time for X-Grid setup             =    4.058 sec

--------------
SCF ITERATIONS
--------------
ITER       Energy         Delta-E        Max-DP      RMS-DP      [F,P]     Damp
               ***  Starting incremental Fock matrix formation  ***
  0 -29471.7506733131   0.00000000000048.02530226  0.11585396  2.8970445 0.7000
  1 -29157.6514403486 314.09923296440758.93652575  0.10180658  2.0696967 0.7000
  2 -29333.1170276962-175.46558734752822.89309679  0.04663110  1.7197863 0.7000
  3 -29442.1129472444-108.99591954827364.99391271  0.10119180  0.6696981 0.7000
  4 -29423.2592971188  18.85365012567556.08743419  0.07252810  1.1686948 0.7000
  5 -29343.7586270669  79.50067005191983.09734854  0.12054668  0.7422732 0.7000
  6 -29357.9478890269 -14.18926196007346.28973070  0.07467156  1.3103446 0.7000
  7 -29330.5489260731  27.39896295385648.02231245  0.07511747  0.8224359 0.7000
  8 -29332.3984815938  -1.84955552075247.07895054  0.07597276  1.3035183 0.7000
  9 -29285.3757447122  47.02273688166760.80599751  0.07998254  0.9111079 0.7000
 10 -29323.3273190956 -37.95157438342748.71093812  0.07453178  1.2710064 0.7000
 11 -29316.8539835329   6.47333556269244.03338149  0.06583171  0.9024503 0.7000
                               ***Turning on DIIS***
 12 -29333.5205489999 -16.66656546699247.25307325  0.07113079  1.2597814 0.7000
 13 -29319.4497470225  14.07080197741733.79461920  0.05382742  0.8973395 0.7000
 14 -29473.7871796440-154.33743262154224.95234650  0.03919798  0.8378311 0.7000
 15 -29562.5879941594 -88.80081451538017.75484745  0.02848672  1.1087132 0.7000
 16 -29613.4536804011 -50.86568624170512.55801790  0.02006454  1.2902971 0.7000
 17 -29645.2184826568 -31.764802255686133.62848536  0.15929668  1.4561581 0.7000
 18 -29479.1266533574 166.09182929942541.16960367  0.04570258  1.6178698 0.7000
 19 -29397.2410191788  81.88563417852935.86317429  0.04459733  1.8661483 0.7000
               *** Restarting incremental Fock matrix formation ***
                                   *** Resetting DIIS ***

 WARNING: the maximum gradient error descreased on average only by a factor   0.9
          during the last 20 iterations

                      *** Initiating the TRAH-SCF procedure ***


TRAH GRIDX
----------

General Integration Accuracy     IntAcc      ... 3.067
Radial Grid Type                 RadialGrid  ... OptM3 with GC (2021)
Angular Grid (max. ang.)         AngularGrid ... 1 (Lebedev-50)
Angular grid pruning method      GridPruning ... 4 (adaptive)
Weight generation scheme         WeightScheme... Becke
Basis function cutoff            BFCut       ... 3.0000e-16
Integration weight cutoff        WCut        ... 1.0000e-14
Angular grids for H and He will be reduced by one unit
Partially contracted basis set               ... on
Rotationally invariant grid construction     ... off

Total number of grid points                  ...    27191
Total number of batches                      ...      467
Average number of points per batch           ...       58
Average number of grid points per atom       ...      383


TRAH GRID
---------

General Integration Accuracy     IntAcc      ... 3.467
Radial Grid Type                 RadialGrid  ... OptM3 with GC (2021)
Angular Grid (max. ang.)         AngularGrid ... 1 (Lebedev-50)
Angular grid pruning method      GridPruning ... 4 (adaptive)
Weight generation scheme         WeightScheme... Becke
Basis function cutoff            BFCut       ... 3.0000e-16
Integration weight cutoff        WCut        ... 1.0000e-14
Angular grids for H and He will be reduced by one unit
Partially contracted basis set               ... off
Rotationally invariant grid construction     ... off

Total number of grid points                  ...    96215
Total number of batches                      ...     1539
Average number of points per batch           ...       62
Average number of grid points per atom       ...     1355

 --------------------------------------------------------------------------------------------
   Iter.        energy            ||Error||_2        Shift      TRadius  Mac/Mic        Rej.
 --------------------------------------------------------------------------------------------
WARNING: 115945 diagonal Hessian elements are negative!
    0     -29625.515777752677     1.380597e+01                     0.400 (TRAH MAcro)   No
WARNING : negative HOMO - LUMO gap : (op = alpha) -10.939921
WARNING : negative HOMO - LUMO gap : (op =  beta) -10.941434
    0     dE    -1.036648e+01     2.312412e+00    -3.0275e+01      0.400 (TRAH MIcro)
    0     dE    -1.041617e+01     1.791749e+00    -3.0763e+01      0.400 (TRAH MIcro)
    0     dE    -1.043959e+01     1.181557e+00    -3.0965e+01      0.400 (TRAH MIcro)
    0     dE    -1.046809e+01     1.041215e-01    -3.1168e+01      0.400 (TRAH MIcro)
    0     dE    -1.046836e+01     5.486357e-02    -3.1169e+01      0.400 (TRAH MIcro)
    0     dE    -1.046842e+01     5.065729e-02    -3.1168e+01      0.400 (TRAH MIcro)
    0     dE    -1.046843e+01     1.945725e-02    -3.1168e+01      0.400 (TRAH MIcro)
    0     dE    -1.046847e+01     3.032667e-03    -3.1168e+01      0.400 (TRAH MIcro)
WARNING: 110440 diagonal Hessian elements are negative!
    1     -29635.970605129041     1.241675e+01                     0.480 (TRAH MAcro)   No
WARNING : negative HOMO - LUMO gap : (op = alpha) -10.453051
WARNING : negative HOMO - LUMO gap : (op =  beta) -10.454336
    1     dE    -1.099114e+01     1.924296e+00    -2.2911e+01      0.473 (TRAH MIcro)
    1     dE    -1.122544e+01     1.270282e+00    -2.3074e+01      0.480 (TRAH MIcro)
    1     dE    -1.124417e+01     9.550050e-01    -2.3168e+01      0.480 (TRAH MIcro)
    1     dE    -1.127164e+01     1.519970e-01    -2.3311e+01      0.480 (TRAH MIcro)
    1     dE    -1.127268e+01     6.536704e-02    -2.3311e+01      0.480 (TRAH MIcro)
    1     dE    -1.127273e+01     5.780575e-02    -2.3311e+01      0.480 (TRAH MIcro)
    1     dE    -1.127277e+01     3.321939e-02    -2.3312e+01      0.480 (TRAH MIcro)
    1     dE    -1.127282e+01     6.770382e-03    -2.3312e+01      0.480 (TRAH MIcro)
WARNING: 103861 diagonal Hessian elements are negative!
    2     -29647.218410049682     1.111279e+01                     0.576 (TRAH MAcro)   No
WARNING : negative HOMO - LUMO gap : (op = alpha) -9.880642
WARNING : negative HOMO - LUMO gap : (op =  beta) -9.881685
    2     dE    -1.192618e+01     1.977218e+00    -1.6654e+01      0.576 (TRAH MIcro)
    2     dE    -1.206941e+01     1.078256e+00    -1.7343e+01      0.576 (TRAH MIcro)
    2     dE    -1.208496e+01     8.519051e-01    -1.7415e+01      0.576 (TRAH MIcro)
    2     dE    -1.211313e+01     2.318106e-01    -1.7519e+01      0.576 (TRAH MIcro)
    2     dE    -1.211676e+01     8.012406e-02    -1.7516e+01      0.576 (TRAH MIcro)
    2     dE    -1.211691e+01     6.291507e-02    -1.7515e+01      0.576 (TRAH MIcro)
    2     dE    -1.211697e+01     4.624315e-02    -1.7516e+01      0.576 (TRAH MIcro)
    2     dE    -1.211706e+01     1.634734e-02    -1.7517e+01      0.576 (TRAH MIcro)
    2     dE    -1.211707e+01     4.480097e-03    -1.7517e+01      0.576 (TRAH MIcro)
WARNING: 96304 diagonal Hessian elements are negative!
    3     -29659.287156551811     9.966201e+00                     0.691 (TRAH MAcro)   No
WARNING : negative HOMO - LUMO gap : (op = alpha) -9.217246
WARNING : negative HOMO - LUMO gap : (op =  beta) -9.218565
    3     dE    -1.284790e+01     2.126567e+00    -1.2473e+01      0.691 (TRAH MIcro)
    3     dE    -1.311343e+01     9.685597e-01    -1.3370e+01      0.691 (TRAH MIcro)
    3     dE    -1.313254e+01     7.684485e-01    -1.3446e+01      0.691 (TRAH MIcro)
    3     dE    -1.315573e+01     3.468570e-01    -1.3522e+01      0.691 (TRAH MIcro)
    3     dE    -1.316474e+01     1.061704e-01    -1.3508e+01      0.691 (TRAH MIcro)
    3     dE    -1.316542e+01     6.546428e-02    -1.3504e+01      0.691 (TRAH MIcro)
    3     dE    -1.316558e+01     4.854026e-02    -1.3504e+01      0.691 (TRAH MIcro)
    3     dE    -1.316564e+01     2.944196e-02    -1.3505e+01      0.691 (TRAH MIcro)
    3     dE    -1.316570e+01     1.138439e-02    -1.3505e+01      0.691 (TRAH MIcro)
    3     dE    -1.316570e+01     3.593210e-03    -1.3505e+01      0.691 (TRAH MIcro)
WARNING: 87532 diagonal Hessian elements are negative!
    4     -29672.350609876248     9.116999e+00                     0.829 (TRAH MAcro)   No
WARNING : negative HOMO - LUMO gap : (op = alpha) -8.451374
WARNING : negative HOMO - LUMO gap : (op =  beta) -8.453256
    4     dE    -1.427406e+01     2.372779e+00    -9.7563e+00      0.829 (TRAH MIcro)
    4     dE    -1.461361e+01     8.420075e-01    -1.1087e+01      0.820 (TRAH MIcro)
    4     dE    -1.475472e+01     6.224999e-01    -1.1109e+01      0.826 (TRAH MIcro)
    4     dE    -1.483889e+01     3.673425e-01    -1.1131e+01      0.829 (TRAH MIcro)
    4     dE    -1.484129e+01     1.511947e-01    -1.1128e+01      0.829 (TRAH MIcro)
    4     dE    -1.481922e+01     6.303209e-02    -1.1129e+01      0.828 (TRAH MIcro)
    4     dE    -1.481538e+01     3.797591e-02    -1.1130e+01      0.828 (TRAH MIcro)
    4     dE    -1.481526e+01     2.534838e-02    -1.1130e+01      0.828 (TRAH MIcro)
    4     dE    -1.481494e+01     1.511788e-02    -1.1130e+01      0.828 (TRAH MIcro)
    4     dE    -1.481527e+01     6.490140e-03    -1.1130e+01      0.828 (TRAH MIcro)
WARNING: 76581 diagonal Hessian elements are negative!
    5     -29686.912792466319     8.757897e+00                     0.995 (TRAH MAcro)   No
WARNING : negative HOMO - LUMO gap : (op = alpha) -7.533762
WARNING : negative HOMO - LUMO gap : (op =  beta) -7.535607
    5     dE    -1.636538e+01     2.611045e+00    -8.4629e+00      0.966 (TRAH MIcro)
    5     dE    -1.771580e+01     8.787270e-01    -9.6112e+00      0.995 (TRAH MIcro)
    5     dE    -1.777354e+01     5.091922e-01    -9.7142e+00      0.995 (TRAH MIcro)
    5     dE    -1.778720e+01     3.269855e-01    -9.7469e+00      0.995 (TRAH MIcro)
    5     dE    -1.779356e+01     1.636579e-01    -9.7603e+00      0.995 (TRAH MIcro)
    5     dE    -1.779599e+01     6.503418e-02    -9.7500e+00      0.995 (TRAH MIcro)
    5     dE    -1.779650e+01     2.839520e-02    -9.7450e+00      0.995 (TRAH MIcro)
    5     dE    -1.779658e+01     1.664439e-02    -9.7447e+00      0.995 (TRAH MIcro)
    5     dE    -1.779659e+01     1.055668e-02    -9.7449e+00      0.995 (TRAH MIcro)
    5     dE    -1.779661e+01     5.199695e-03    -9.7449e+00      0.995 (TRAH MIcro)
WARNING: 62755 diagonal Hessian elements are negative!
    6     -29704.031719539511     8.697754e+00                     1.194 (TRAH MAcro)   No
WARNING : negative HOMO - LUMO gap : (op = alpha) -6.304728
WARNING : negative HOMO - LUMO gap : (op =  beta) -6.296863
    6     dE    -1.613948e+01     2.204329e+00    -8.3749e+00      0.963 (TRAH MIcro)
    6     dE    -1.826110e+01     9.468899e-01    -8.6852e+00      1.050 (TRAH MIcro)
    6     dE    -1.854130e+01     4.823866e-01    -8.7205e+00      1.061 (TRAH MIcro)
    6     dE    -1.856761e+01     3.285874e-01    -8.7259e+00      1.062 (TRAH MIcro)
    6     dE    -1.859627e+01     1.180857e-01    -8.7297e+00      1.063 (TRAH MIcro)
    6     dE    -1.859213e+01     4.798112e-02    -8.7305e+00      1.063 (TRAH MIcro)
    6     dE    -1.858220e+01     2.241436e-02    -8.7306e+00      1.062 (TRAH MIcro)
    6     dE    -1.857928e+01     1.298343e-02    -8.7307e+00      1.062 (TRAH MIcro)
    6     dE    -1.857910e+01     7.999050e-03    -8.7307e+00      1.062 (TRAH MIcro)
WARNING: 47177 diagonal Hessian elements are negative!
    7     -29721.680941235139     8.006521e+00                     1.433 (TRAH MAcro)   No
WARNING : negative HOMO - LUMO gap : (op = alpha) -4.759356
WARNING : negative HOMO - LUMO gap : (op =  beta) -4.720296
    7     dE    -1.344863e+01     1.733123e+00    -7.3229e+00      0.915 (TRAH MIcro)
    7     dE    -1.468580e+01     7.593875e-01    -7.5271e+00      0.975 (TRAH MIcro)
    7     dE    -1.481426e+01     4.792731e-01    -7.5480e+00      0.981 (TRAH MIcro)
    7     dE    -1.484174e+01     2.164268e-01    -7.5567e+00      0.982 (TRAH MIcro)
    7     dE    -1.485406e+01     5.155493e-02    -7.5596e+00      0.982 (TRAH MIcro)
    7     dE    -1.485282e+01     2.717090e-02    -7.5598e+00      0.982 (TRAH MIcro)
    7     dE    -1.485111e+01     1.624693e-02    -7.5598e+00      0.982 (TRAH MIcro)
    7     dE    -1.485081e+01     8.121052e-03    -7.5598e+00      0.982 (TRAH MIcro)
WARNING: 33105 diagonal Hessian elements are negative!
    8     -29735.922761390197     6.548143e+00                     1.720 (TRAH MAcro)   No
WARNING : negative HOMO - LUMO gap : (op = alpha) -3.421851
WARNING : negative HOMO - LUMO gap : (op =  beta) -3.424764
    8     dE    -9.749426e+00     1.371760e+00    -5.6168e+00      0.858 (TRAH MIcro)
    8     dE    -1.054974e+01     6.402765e-01    -5.7654e+00      0.911 (TRAH MIcro)
    8     dE    -1.066155e+01     3.959042e-01    -5.7854e+00      0.918 (TRAH MIcro)
    8     dE    -1.069182e+01     9.519972e-02    -5.7957e+00      0.919 (TRAH MIcro)
    8     dE    -1.069000e+01     3.784873e-02    -5.7966e+00      0.919 (TRAH MIcro)
    8     dE    -1.068743e+01     1.969528e-02    -5.7967e+00      0.919 (TRAH MIcro)
    8     dE    -1.068705e+01     9.862631e-03    -5.7967e+00      0.918 (TRAH MIcro)
WARNING: 20760 diagonal Hessian elements are negative!
    9     -29746.297444948672     4.856763e+00                     2.064 (TRAH MAcro)   No
WARNING : negative HOMO - LUMO gap : (op = alpha) -2.382287
WARNING : negative HOMO - LUMO gap : (op =  beta) -2.392290
    9     dE    -6.527989e+00     1.136626e+00    -3.9383e+00      0.811 (TRAH MIcro)
    9     dE    -7.194776e+00     5.070773e-01    -4.0746e+00      0.875 (TRAH MIcro)
    9     dE    -7.319405e+00     2.294293e-01    -4.0975e+00      0.887 (TRAH MIcro)
    9     dE    -7.323926e+00     5.608836e-02    -4.1028e+00      0.886 (TRAH MIcro)
    9     dE    -7.319005e+00     2.514518e-02    -4.1032e+00      0.885 (TRAH MIcro)
    9     dE    -7.317809e+00     1.002073e-02    -4.1032e+00      0.885 (TRAH MIcro)
    9     dE    -7.318223e+00     3.193712e-03    -4.1032e+00      0.885 (TRAH MIcro)
WARNING: 10739 diagonal Hessian elements are negative!
   10     -29753.458732653668     3.396637e+00                     2.477 (TRAH MAcro)   No
WARNING : negative HOMO - LUMO gap : (op = alpha) -1.596262
WARNING : negative HOMO - LUMO gap : (op =  beta) -1.595011
   10     dE    -4.288606e+00     9.350553e-01    -2.6590e+00      0.783 (TRAH MIcro)
   10     dE    -4.896090e+00     3.447934e-01    -2.7931e+00      0.868 (TRAH MIcro)
   10     dE    -4.990682e+00     1.040325e-01    -2.8103e+00      0.881 (TRAH MIcro)
   10     dE    -4.988606e+00     3.015322e-02    -2.8120e+00      0.880 (TRAH MIcro)
   10     dE    -4.986685e+00     1.038635e-02    -2.8121e+00      0.879 (TRAH MIcro)
   10     dE    -4.986591e+00     2.570512e-03    -2.8122e+00      0.879 (TRAH MIcro)
WARNING: 4244 diagonal Hessian elements are negative!
   11     -29758.349671821194     2.331915e+00                     2.972 (TRAH MAcro)   No
WARNING : negative HOMO - LUMO gap : (op = alpha) -1.036170
WARNING : negative HOMO - LUMO gap : (op =  beta) -1.018531
   11     dE    -2.904884e+00     7.371567e-01    -1.8116e+00      0.777 (TRAH MIcro)
   11     dE    -3.404272e+00     2.490126e-01    -1.9283e+00      0.875 (TRAH MIcro)
   11     dE    -3.468845e+00     4.959870e-02    -1.9383e+00      0.889 (TRAH MIcro)
   11     dE    -3.471154e+00     1.205280e-02    -1.9388e+00      0.889 (TRAH MIcro)
   11     dE    -3.471291e+00     3.160055e-03    -1.9389e+00      0.889 (TRAH MIcro)
WARNING: 1347 diagonal Hessian elements are negative!
   12     -29761.752024119767     1.623124e+00                     3.566 (TRAH MAcro)   No
WARNING : negative HOMO - LUMO gap : (op = alpha) -0.685090
WARNING : negative HOMO - LUMO gap : (op =  beta) -0.670262
   12     dE    -2.072462e+00     5.449789e-01    -1.2788e+00      0.788 (TRAH MIcro)
   12     dE    -2.404418e+00     2.257667e-01    -1.3593e+00      0.877 (TRAH MIcro)
   12     dE    -2.462340e+00     5.499834e-02    -1.3679e+00      0.895 (TRAH MIcro)
   12     dE    -2.470078e+00     1.960308e-02    -1.3685e+00      0.897 (TRAH MIcro)
   12     dE    -2.471604e+00     6.135026e-03    -1.3685e+00      0.898 (TRAH MIcro)
WARNING: 479 diagonal Hessian elements are negative!
   13     -29764.173860620551     1.155891e+00                     4.280 (TRAH MAcro)   No
WARNING : negative HOMO - LUMO gap : (op = alpha) -0.485918
WARNING : negative HOMO - LUMO gap : (op =  beta) -0.473044
   13     dE    -1.517738e+00     3.962772e-01    -9.2513e-01      0.800 (TRAH MIcro)
   13     dE    -1.725705e+00     1.842855e-01    -9.7585e-01      0.877 (TRAH MIcro)
   13     dE    -1.771266e+00     6.363435e-02    -9.8291e-01      0.896 (TRAH MIcro)
   13     dE    -1.782622e+00     3.132615e-02    -9.8389e-01      0.901 (TRAH MIcro)
   13     dE    -1.785656e+00     1.091409e-02    -9.8406e-01      0.903 (TRAH MIcro)
   13     dE    -1.786177e+00     4.409328e-03    -9.8408e-01      0.903 (TRAH MIcro)
WARNING: 154 diagonal Hessian elements are negative!
   14     -29765.922717425372     8.333050e-01                     5.136 (TRAH MAcro)   No
WARNING : negative HOMO - LUMO gap : (op = alpha) -0.350640
WARNING : negative HOMO - LUMO gap : (op =  beta) -0.329405
   14     dE    -1.102322e+00     3.218321e-01    -6.6973e-01      0.804 (TRAH MIcro)
   14     dE    -1.242656e+00     1.422732e-01    -7.0378e-01      0.875 (TRAH MIcro)
   14     dE    -1.275365e+00     7.358898e-02    -7.0907e-01      0.894 (TRAH MIcro)
   14     dE    -1.291616e+00     4.352336e-02    -7.1079e-01      0.904 (TRAH MIcro)
   14     dE    -1.296409e+00     1.645213e-02    -7.1116e-01      0.907 (TRAH MIcro)
   14     dE    -1.297584e+00     8.524516e-03    -7.1123e-01      0.908 (TRAH MIcro)
WARNING: 43 diagonal Hessian elements are negative!
   15     -29767.187792639001     5.972836e-01                     6.163 (TRAH MAcro)   No
WARNING : negative HOMO - LUMO gap : (op = alpha) -0.215874
WARNING : negative HOMO - LUMO gap : (op =  beta) -0.235273
   15     dE    -7.614058e-01     1.097437e+00    -4.7013e-01      0.787 (TRAH MIcro)
   15     dE    -8.622908e-01     1.417255e-01    -4.9638e-01      0.859 (TRAH MIcro)
   15     dE    -8.848395e-01     1.819843e-01    -5.0040e-01      0.876 (TRAH MIcro)
   15     dE    -9.025069e-01     5.749220e-02    -5.0277e-01      0.892 (TRAH MIcro)
   15     dE    -9.055898e-01     1.491685e-02    -5.0309e-01      0.894 (TRAH MIcro)
   15     dE    -9.060378e-01     1.042863e-02    -5.0313e-01      0.895 (TRAH MIcro)
   15     dE    -9.062394e-01     6.879965e-03    -5.0316e-01      0.895 (TRAH MIcro)
WARNING: 15 diagonal Hessian elements are negative!
   16     -29768.062215316426     4.029560e-01                     7.395 (TRAH MAcro)   No
WARNING : negative HOMO - LUMO gap : (op = alpha) -0.088379
WARNING : negative HOMO - LUMO gap : (op =  beta) -0.172535
   16     dE    -4.346564e-01     7.147952e-01    -2.8782e-01      0.714 (TRAH MIcro)
   16     dE    -4.943071e-01     2.459054e-01    -3.0761e-01      0.779 (TRAH MIcro)
   16     dE    -5.190370e-01     8.827510e-02    -3.1310e-01      0.811 (TRAH MIcro)
   16     dE    -5.345733e-01     9.590782e-02    -3.1560e-01      0.833 (TRAH MIcro)
   16     dE    -5.527676e-01     6.740277e-02    -3.1791e-01      0.860 (TRAH MIcro)
   16     dE    -5.594819e-01     3.569849e-02    -3.1868e-01      0.869 (TRAH MIcro)
   16     dE    -5.613737e-01     2.219437e-02    -3.1890e-01      0.872 (TRAH MIcro)
   16     dE    -5.635549e-01     2.418967e-02    -3.1907e-01      0.875 (TRAH MIcro)
   16     dE    -5.658145e-01     2.210753e-02    -3.1919e-01      0.879 (TRAH MIcro)
   16     dE    -5.672347e-01     6.809114e-03    -3.1925e-01      0.881 (TRAH MIcro)
WARNING: 1 diagonal Hessian elements are negative!
   17     -29768.603977361050     2.424060e-01                     8.874 (TRAH MAcro)   No
WARNING : small    HOMO - LUMO gap : (op = alpha) 0.011988
WARNING : negative HOMO - LUMO gap : (op =  beta) -0.050622
   17     dE    -1.757250e-01     2.080542e+00    -1.3441e-01      0.554 (TRAH MIcro)
   17     dE    -2.538319e-01     9.014093e-01    -1.6735e-01      0.719 (TRAH MIcro)
   17     dE    -2.933288e-01     2.447620e-01    -1.7877e-01      0.801 (TRAH MIcro)
   17     dE    -3.222464e-01     3.740311e-01    -1.8447e-01      0.864 (TRAH MIcro)
   17     dE    -3.760681e-01     1.138186e-01    -1.9258e-01      0.976 (TRAH MIcro)
   17     dE    -3.899475e-01     1.548056e-01    -1.9455e-01      1.002 (TRAH MIcro)
   17     dE    -3.922405e-01     6.671704e-02    -1.9521e-01      1.005 (TRAH MIcro)
   17     dE    -3.920386e-01     1.126502e-02    -1.9532e-01      1.004 (TRAH MIcro)
   17     dE    -3.920194e-01     6.628051e-03    -1.9534e-01      1.003 (TRAH MIcro)
   18     -29768.925085559000     1.193828e-01                    10.649 (TRAH MAcro)   No
   18     dE    -8.845780e-03     1.257593e+00    -8.7980e-03      0.074 (TRAH MIcro)
   18     dE    -7.930167e-02     1.641290e-01    -5.8542e-02      0.595 (TRAH MIcro)
   18     dE    -8.469176e-02     8.100200e-02    -6.0595e-02      0.631 (TRAH MIcro)
   18     dE    -9.006030e-02     9.798636e-02    -6.1698e-02      0.678 (TRAH MIcro)
   18     dE    -9.144616e-02     1.595751e-02    -6.1871e-02      0.691 (TRAH MIcro)
   18     dE    -9.197219e-02     5.462283e-03    -6.1909e-02      0.697 (TRAH MIcro)
   19     -29769.005605154707     3.854039e-02                    12.779 (TRAH MAcro)   No
   19     dE    -3.263684e-04     2.335349e-01    -3.2634e-04      0.008 (TRAH MIcro)
   19     dE    -4.251090e-03     1.033090e-01    -4.1456e-03      0.160 (TRAH MIcro)
   19     dE    -5.095356e-03     1.704633e-02    -4.8884e-03      0.206 (TRAH MIcro)
   19     dE    -5.510650e-03     2.907221e-02    -5.2219e-03      0.235 (TRAH MIcro)
   19     dE    -5.654560e-03     7.088287e-03    -5.3295e-03      0.247 (TRAH MIcro)
   19     dE    -5.680117e-03     5.790476e-03    -5.3481e-03      0.249 (TRAH MIcro)
   19     dE    -5.696776e-03     2.901605e-03    -5.3596e-03      0.251 (TRAH MIcro)
   20     -29769.011174915609     5.354627e-03                    15.335 (TRAH MAcro)   No
   20     dE    -7.589141e-06     1.107843e-02    -7.5891e-06      0.001 (TRAH MIcro)
   20     dE    -1.796714e-05     3.027215e-03    -1.7967e-05      0.005 (TRAH MIcro)
   20     dE    -2.435015e-05     2.625375e-03    -2.4348e-05      0.009 (TRAH MIcro)
   20     dE    -2.587991e-05     1.174953e-03    -2.5877e-05      0.011 (TRAH MIcro)
   20     dE    -2.679052e-05     1.071800e-03    -2.6786e-05      0.013 (TRAH MIcro)
   20     dE    -2.716965e-05     3.594707e-04    -2.7165e-05      0.014 (TRAH MIcro)
   21     -29769.011201966481     3.606498e-04                           (NR   MAcro)
   21     dE    -6.299473e-08     1.915130e-04                           (NR   MIcro)
   21     dE    -9.447142e-08     1.274503e-04                           (NR   MIcro)
   21     dE    -1.107238e-07     1.130154e-04                           (NR   MIcro)
   21     dE    -1.169335e-07     5.815427e-05                           (NR   MIcro)
   21     dE    -1.194040e-07     3.731905e-05                           (NR   MIcro)
   21     dE    -1.204362e-07     2.611651e-05                           (NR   MIcro)
   21     dE    -1.207163e-07     1.244355e-05                           (NR   MIcro)
   21     dE    -1.207904e-07     5.989575e-06                           (NR   MIcro)
   21     dE    -1.208143e-07     3.657405e-06                           (NR   MIcro)
   21     dE    -1.208207e-07     1.864951e-06                           (NR   MIcro)
   21     dE    -1.208223e-07     9.826315e-07                           (NR   MIcro)
   22     -29769.011202094891     1.171434e-06                           (NR   MAcro)
   22     dE    -6.369916e-13     6.348049e-07                           (NR   MIcro)
   22     dE    -9.309764e-13     3.356336e-07                           (NR   MIcro)
   22     dE    -1.014515e-12     2.374937e-07                           (NR   MIcro)
   22     dE    -1.050573e-12     1.541352e-07                           (NR   MIcro)
   22     dE    -1.064438e-12     7.695672e-08                           (NR   MIcro)
   22     dE    -1.067575e-12     4.450292e-08                           (NR   MIcro)
   22     dE    -1.068851e-12     2.767541e-08                           (NR   MIcro)
   22     dE    -1.069399e-12     1.837570e-08                           (NR   MIcro)
   22     dE    -1.069578e-12     9.792793e-09                           (NR   MIcro)
[...]
 1343( 0) :     6.782227 a.u.   184.554 eV
 1344( 0) :     6.788262 a.u.   184.718 eV
 1345( 0) :     6.793283 a.u.   184.855 eV
 1346( 0) :     6.795297 a.u.   184.909 eV
 1347( 0) :     6.816209 a.u.   185.478 eV
 1348( 0) :     6.818172 a.u.   185.532 eV
 1349( 0) :     6.834258 a.u.   185.970 eV
 1350( 0) :     6.846119 a.u.   186.292 eV
 1351( 0) :     6.856657 a.u.   186.579 eV
 1352( 0) :     6.869950 a.u.   186.941 eV
 1353( 0) :     6.880366 a.u.   187.224 eV
 1354( 0) :     6.885296 a.u.   187.358 eV
 1355( 0) :     6.941732 a.u.   188.894 eV
 1356( 0) :     6.948811 a.u.   189.087 eV
 1357( 0) :     6.975155 a.u.   189.804 eV
 1358( 0) :     6.991120 a.u.   190.238 eV
 1359( 0) :     7.015484 a.u.   190.901 eV
 1360( 0) :     7.018074 a.u.   190.972 eV
 1361( 0) :     7.034536 a.u.   191.419 eV
 1362( 0) :     7.041351 a.u.   191.605 eV
 1363( 0) :     7.053752 a.u.   191.942 eV
 1364( 0) :     7.078810 a.u.   192.624 eV
 1365( 0) :     7.092300 a.u.   192.991 eV
 1366( 0) :     7.098469 a.u.   193.159 eV
 1367( 0) :     7.120317 a.u.   193.754 eV
 1368( 0) :     7.149360 a.u.   194.544 eV
 1369( 0) :     7.160934 a.u.   194.859 eV
 1370( 0) :     7.162484 a.u.   194.901 eV
 1371( 0) :     7.173240 a.u.   195.194 eV
 1372( 0) :     7.187662 a.u.   195.586 eV
 1373( 0) :     7.190409 a.u.   195.661 eV
 1374( 0) :     7.213373 a.u.   196.286 eV
 1375( 0) :     7.219864 a.u.   196.462 eV
 1376( 0) :     7.227254 a.u.   196.664 eV
 1377( 0) :     7.245167 a.u.   197.151 eV
 1378( 0) :     7.264179 a.u.   197.668 eV
 1379( 0) :     7.319785 a.u.   199.181 eV
 1380( 0) :     7.336481 a.u.   199.636 eV
 1381( 0) :     7.353290 a.u.   200.093 eV
 1382( 0) :     7.360522 a.u.   200.290 eV
 1383( 0) :     7.385890 a.u.   200.980 eV
 1384( 0) :     7.405166 a.u.   201.505 eV
 1385( 0) :     7.422458 a.u.   201.975 eV
 1386( 0) :     7.461864 a.u.   203.048 eV
 1387( 0) :     7.479444 a.u.   203.526 eV
 1388( 0) :     7.490775 a.u.   203.834 eV
 1389( 0) :     7.514106 a.u.   204.469 eV
 1390( 0) :     7.539169 a.u.   205.151 eV
 1391( 0) :     7.576159 a.u.   206.158 eV
 1392( 0) :     7.648320 a.u.   208.121 eV
 1393( 0) :     7.698770 a.u.   209.494 eV
 1394( 0) :     7.724080 a.u.   210.183 eV
 1395( 0) :     7.748207 a.u.   210.839 eV
 1396( 0) :     7.775724 a.u.   211.588 eV
 1397( 0) :     7.817407 a.u.   212.722 eV
 1398( 0) :     7.847877 a.u.   213.552 eV
 1399( 0) :     7.893839 a.u.   214.802 eV
 1400( 0) :     7.916769 a.u.   215.426 eV
 1401( 0) :     7.931557 a.u.   215.829 eV
 1402( 0) :     7.932643 a.u.   215.858 eV
 1403( 0) :     7.937394 a.u.   215.987 eV
 1404( 0) :     7.959459 a.u.   216.588 eV
 1405( 0) :     7.976662 a.u.   217.056 eV
 1406( 0) :     7.995774 a.u.   217.576 eV
 1407( 0) :     8.013491 a.u.   218.058 eV
 1408( 0) :     8.036501 a.u.   218.684 eV
 1409( 0) :     8.055738 a.u.   219.208 eV
 1410( 0) :     8.067264 a.u.   219.521 eV
 1411( 0) :     8.073113 a.u.   219.681 eV
 1412( 0) :     8.076119 a.u.   219.762 eV
 1413( 0) :     8.080661 a.u.   219.886 eV
 1414( 0) :     8.091739 a.u.   220.187 eV
 1415( 0) :     8.109885 a.u.   220.681 eV
 1416( 0) :     8.122439 a.u.   221.023 eV
 1417( 0) :     8.133159 a.u.   221.315 eV
 1418( 0) :     8.141321 a.u.   221.537 eV
 1419( 0) :     8.249764 a.u.   224.487 eV
 1420( 0) :     8.263737 a.u.   224.868 eV
 1421( 0) :     8.285083 a.u.   225.449 eV
 1422( 0) :     8.300355 a.u.   225.864 eV
 1423( 0) :     8.306248 a.u.   226.024 eV
 1424( 0) :     8.321223 a.u.   226.432 eV
 1425( 0) :     8.324669 a.u.   226.526 eV
 1426( 0) :     8.368536 a.u.   227.719 eV
 1427( 0) :     8.387133 a.u.   228.225 eV
 1428( 0) :     8.392331 a.u.   228.367 eV
 1429( 0) :     8.425430 a.u.   229.268 eV
 1430( 0) :     8.435096 a.u.   229.531 eV
 1431( 0) :     8.440537 a.u.   229.679 eV
 1432( 0) :     8.464223 a.u.   230.323 eV
 1433( 0) :     8.487954 a.u.   230.969 eV
 1434( 0) :     8.529735 a.u.   232.106 eV
 1435( 0) :     8.533664 a.u.   232.213 eV
 1436( 0) :     8.541236 a.u.   232.419 eV
 1437( 0) :     8.567206 a.u.   233.126 eV
 1438( 0) :     8.589806 a.u.   233.740 eV
 1439( 0) :     8.604448 a.u.   234.139 eV
 1440( 0) :     8.610534 a.u.   234.305 eV
 1441( 0) :     8.633544 a.u.   234.931 eV
 1442( 0) :     8.691320 a.u.   236.503 eV
 1443( 0) :     8.718811 a.u.   237.251 eV
 1444( 0) :     8.737721 a.u.   237.765 eV
 1445( 0) :     8.836931 a.u.   240.465 eV
 1446( 0) :     8.869347 a.u.   241.347 eV
 1447( 0) :     8.928903 a.u.   242.968 eV
 1448( 0) :     8.986948 a.u.   244.547 eV
 1449( 0) :     8.987941 a.u.   244.574 eV
 1450( 0) :     9.007926 a.u.   245.118 eV
 1451( 0) :     9.068227 a.u.   246.759 eV
 1452( 0) :     9.139906 a.u.   248.709 eV
 1453( 0) :     9.241561 a.u.   251.476 eV
 1454( 0) :     9.810986 a.u.   266.971 eV
 1455( 0) :     9.830000 a.u.   267.488 eV
 1456( 0) :     9.856498 a.u.   268.209 eV
 1457( 0) :     9.934387 a.u.   270.328 eV
 1458( 0) :     9.993875 a.u.   271.947 eV
 1459( 0) :    10.083740 a.u.   274.393 eV
 1460( 0) :    10.104663 a.u.   274.962 eV
 1461( 0) :    10.135680 a.u.   275.806 eV
 1462( 0) :    10.296408 a.u.   280.180 eV
 1463( 0) :    10.344341 a.u.   281.484 eV
 1464( 0) :    10.354790 a.u.   281.768 eV
 1465( 0) :    10.837020 a.u.   294.890 eV
 1466( 0) :    10.916536 a.u.   297.054 eV
 1467( 0) :    10.968136 a.u.   298.458 eV
 1468( 0) :    11.048627 a.u.   300.648 eV
 1469( 0) :    11.062489 a.u.   301.026 eV
 1470( 0) :    11.161010 a.u.   303.707 eV
 1471( 0) :    11.171267 a.u.   303.986 eV
 1472( 0) :    11.218185 a.u.   305.262 eV
 1473( 0) :    11.309182 a.u.   307.738 eV
 1474( 0) :    11.315304 a.u.   307.905 eV
 1475( 0) :    11.407658 a.u.   310.418 eV
 1476( 0) :    11.746684 a.u.   319.644 eV
 1477( 0) :    11.769148 a.u.   320.255 eV
 1478( 0) :    11.842084 a.u.   322.239 eV
 1479( 0) :    11.882159 a.u.   323.330 eV
 1480( 0) :    11.957541 a.u.   325.381 eV
 1481( 0) :    11.966744 a.u.   325.632 eV
 1482( 0) :    12.003987 a.u.   326.645 eV
 1483( 0) :    12.086114 a.u.   328.880 eV
 1484( 0) :    12.112062 a.u.   329.586 eV
 1485( 0) :    12.119851 a.u.   329.798 eV
 1486( 0) :    12.155926 a.u.   330.780 eV
 1487( 0) :    12.520916 a.u.   340.711 eV
 1488( 0) :    12.532261 a.u.   341.020 eV
 1489( 0) :    12.560787 a.u.   341.796 eV
 1490( 0) :    12.563695 a.u.   341.876 eV
 1491( 0) :    12.575323 a.u.   342.192 eV
 1492( 0) :    12.580943 a.u.   342.345 eV
 1493( 0) :    12.594351 a.u.   342.710 eV
 1494( 0) :    12.777401 a.u.   347.691 eV
 1495( 0) :    12.786575 a.u.   347.940 eV
 1496( 0) :    12.813045 a.u.   348.661 eV
 1497( 0) :    12.815104 a.u.   348.717 eV
 1498( 0) :    12.819417 a.u.   348.834 eV
 1499( 0) :    12.831141 a.u.   349.153 eV
 1500( 0) :    12.834977 a.u.   349.257 eV
 1501( 0) :    12.865316 a.u.   350.083 eV
 1502( 0) :    13.361229 a.u.   363.578 eV
 1503( 0) :    13.368859 a.u.   363.785 eV
 1504( 0) :    13.381717 a.u.   364.135 eV
 1505( 0) :    13.396261 a.u.   364.531 eV
 1506( 0) :    13.399977 a.u.   364.632 eV
 1507( 0) :    13.404068 a.u.   364.743 eV
 1508( 0) :    13.405460 a.u.   364.781 eV
 1509( 0) :    13.534247 a.u.   368.286 eV
 1510( 0) :    13.536735 a.u.   368.353 eV
 1511( 0) :    13.749153 a.u.   374.133 eV
 1512( 0) :    13.793616 a.u.   375.343 eV
 1513( 0) :    14.015605 a.u.   381.384 eV
 1514( 0) :    27.006700 a.u.   734.890 eV
 1515( 0) :    38.413221 a.u.  1045.277 eV
 1516( 0) :    38.607490 a.u.  1050.563 eV
 1517( 0) :    38.629124 a.u.  1051.152 eV
 1518( 0) :    38.910460 a.u.  1058.807 eV
 1519( 0) :    39.830160 a.u.  1083.834 eV
 1520( 0) :    39.968575 a.u.  1087.600 eV
 1521( 0) :    40.025621 a.u.  1089.153 eV
 1522( 0) :    40.684959 a.u.  1107.094 eV
 1523( 0) :    40.891422 a.u.  1112.712 eV
 1524( 0) :    44.707522 a.u.  1216.554 eV
 1525( 0) :    45.468867 a.u.  1237.271 eV
 1526( 0) :    45.751950 a.u.  1244.974 eV
 1527( 0) :    46.197188 a.u.  1257.089 eV
 1528( 0) :    46.708464 a.u.  1271.002 eV
 1529( 0) :    48.062396 a.u.  1307.844 eV
 1530( 0) :    51.774129 a.u.  1408.846 eV
 1531( 0) :    87.951695 a.u.  2393.287 eV
-------
TIMINGS
-------

Total SCF time: 0 days 1 hours 49 min 52 sec 

Total time                  ....    6592.353 sec
Sum of individual times     ....    6511.513 sec  ( 98.8%)

Fock matrix formation       ....    6105.867 sec  ( 92.6%)
  Split-RI-J                ....     795.123 sec  ( 13.0% of F)
  Chain of spheres X        ....    4500.118 sec  ( 73.7% of F)
  XC integration            ....     795.438 sec  ( 13.0% of F)
    Basis function eval.    ....      40.980 sec  (  5.2% of XC)
    Density eval.           ....     274.705 sec  ( 34.5% of XC)
    XC-Functional eval.     ....       2.122 sec  (  0.3% of XC)
    XC-Potential eval.      ....     359.679 sec  ( 45.2% of XC)
Diagonalization             ....      18.226 sec  (  0.3%)
Density matrix formation    ....      25.185 sec  (  0.4%)
Population analysis         ....      24.658 sec  (  0.4%)
Initial guess               ....       4.340 sec  (  0.1%)
Orbital Transformation      ....     310.647 sec  (  4.7%)
Orbital Orthonormalization  ....       0.000 sec  (  0.0%)
DIIS solution               ....      14.661 sec  (  0.2%)
Grid generation             ....       7.705 sec  (  0.1%)

Maximum memory used throughout the entire SCF-calculation: 682.6 MB

-------------------------   --------------------
FINAL SINGLE POINT ENERGY    -29769.011107729166
-------------------------   --------------------

   --->>> SOC part of D-tensor requested, so NeedSOC=true

                            ***************************************
                            *     ORCA property calculations      *
                            ***************************************

                                    ---------------------
                                    Active property flags
                                    ---------------------
   (+) Dipole Moment
   (+) D-tensor
   (+) Spin-Orbit Integrals are needed


------------------------------------------------------------------------------
                       ORCA ELECTRIC PROPERTIES CALCULATION
------------------------------------------------------------------------------

Dipole Moment Calculation                       ... on
Quadrupole Moment Calculation                   ... off
Polarizability Calculation                      ... off
GBWName                                         ... zfs.gbw
Electron density                                ... zfs.scfp
The origin for moment calculation is the CENTER OF MASS  = (12.277892, 21.265914 28.619898)

-------------
DIPOLE MOMENT
-------------
                                X             Y             Z
Electronic contribution:      0.00002      -0.00044     -36.66800
Nuclear contribution   :     -0.00002       0.00002      34.47000
                        -----------------------------------------
Total Dipole Moment    :      0.00000      -0.00042      -2.19800
                        -----------------------------------------
Magnitude (a.u.)       :      2.19800
Magnitude (Debye)      :      5.58687



--------------------
Rotational spectrum 
--------------------
 
Rotational constants in cm-1:     0.001509     0.001355     0.001355 
Rotational constants in MHz :    45.252763    40.623829    40.623826 

 Dipole components along the rotational axes: 
x,y,z [a.u.] :    -2.198001    -0.000117    -0.000408 
x,y,z [Debye]:    -5.586873    -0.000297    -0.001036 

 


           ************************************************************
           *        Program running with 32 parallel MPI-processes    *
           *              working on a shared directory               *
           ************************************************************
------------------------------------------------------------------------------
                         ORCA SPIN-ORBIT COUPLING CALCULATION
------------------------------------------------------------------------------

GBW file                                    ... zfs.gbw
Input density                               ... zfs.scfp
Output integrals                            ... zfs
Operator type                               ... Mean-field/Effective potential
   One-Electron Terms                       ... 1
   Coulomb Contribution                     ... 3
   Exchange Contribution                    ... 3
   Correlation Contribution                 ... 0
   Maximum number of centers                ... 4
SHARK 2-electron RIJ-SOMF                   ... done ( 21.5 sec)
SHARK 1-electron  MaxCenter=4               ... done (  0.3 sec)
SHARK 2-electron DoJ,X=0,1 MaxCenter=1      ... done ( 14.1 sec)

Maximum memory used throughout the entire SOC-calculation: 2557.4 MB
Total time for SOC: 40.565


           ************************************************************
           *        Program running with 32 parallel MPI-processes    *
           *              working on a shared directory               *
           ************************************************************
------------------------------------------------------------------------------
                                ORCA EPR/NMR CALCULATION
------------------------------------------------------------------------------

GBWName                      ... zfs.gbw
Electron density             ... zfs.scfp
Spin density                 ... zfs.scfr
Spin-orbit integrals         ... zfs
Multiplicity                 ... 3
g-tensor                     ... 0
NMR chemical shifts          ... 0
D-tensor                     ... spin-spin and spin-orbit
D(SS)-algorithm              ... input spin density
NMR spin-spin couplings      ... 0
NMR spectrum                 ... 0

Starting the spin-spin zero-field-splitting computation (DIRECT)...
SHARK: Electron-Electron contact term tr(DSS) =    0.0000 1/cm
                                      tr(DSSJ)=    1.2149 1/cm
                                      tr(DSSK)=   -1.2149 1/cm

                        ... done with spin-spin calculation

Starting the spin-orbit zero-field-splitting computation (CP)...

---------------------------
COUPLED-PERTURBED SCF D-SOC
---------------------------

 Orbital range for operator   0: 0..329 to 330..1531
 Orbital range for operator   1: 0..327 to 328..1531
Reading Spin-Orbit Integrals                  ... done
Transforming integrals                       ... done
Max(Pert)=   1.0456e-01
Scaling perturbations by   9.5640e+00

Poples Solver
     CP-SCF ITERATION   0: 
     CP-SCF ITERATION   1:      0.005026340
     CP-SCF ITERATION   2:      0.001641728
     CP-SCF ITERATION   3:      0.000295383
     CP-SCF ITERATION   4:      0.000053003
     CP-SCF ITERATION   5:      0.000014030
     CP-SCF ITERATION   6:      0.000001656
ZFS-Tensor - using the prefactors
     -1/(2S(2*S-1)) for same spin
     -1/(2S(2*S-1)) for alpha->beta
     -1/(2S(2*S-1)) for beta->alpha
                        ... done with spin-orbit calculation

---------------------------
ZERO-FIELD-SPLITTING TENSOR
---------------------------

raw-matrix : 
   0.563102     0.000001     0.000001  
   0.000001     0.563503    -0.000049  
   0.000001    -0.000049    -0.469340  

Tensor is right-handed
diagonalized D matrix : 
  -0.469340     0.563102     0.563503  

  -0.000001    -0.999998    -0.002005  
   0.000047     0.002005    -0.999998  
   1.000000    -0.000001     0.000047  


Direction X=1 Y=2 Z=0
D   =    -1.032642  cm**-1
E/D =     0.000194

SPIN-SPIN-PART
                  0          1          2    
      0      -0.038871   0.000000   0.000000
      1       0.000000  -0.038846  -0.000004
      2       0.000000  -0.000004   0.077717
Exchange and Coulomb parts of SS (raw)
Coulomb
                  0          1          2    
      0      -0.013651   0.000000   0.000000
      1       0.000000  -0.013633  -0.000004
      2       0.000000  -0.000004   0.027283
Exchange
                  0          1          2    
      0      -0.025220  -0.000000   0.000000
      1      -0.000000  -0.025213  -0.000001
      2       0.000000  -0.000001   0.050434
One-, two-, three- and four-center SS contributions (raw)
One-Center            (AA|AA):
                  0          1          2    
      0      -0.039678  -0.000000   0.000001
      1      -0.000000  -0.039881   0.000146
      2       0.000001   0.000146   0.079559
Two-Center-Coulomb    (AA|BB):
                  0          1          2    
      0       0.002189  -0.000000   0.000000
      1      -0.000000   0.002125  -0.000012
      2       0.000000  -0.000012  -0.004315
Two-Center-Exchange   (AB|BA):
                  0          1          2    
      0      -0.004915   0.000000   0.000000
      1       0.000000  -0.004917   0.000004
      2       0.000000   0.000004   0.009832
Two-Center-hybrid     (AA|AB):
                  0          1          2    
      0       0.003591   0.000000  -0.000002
      1       0.000000   0.003980  -0.000179
      2      -0.000002  -0.000179  -0.007571
Three-Center-Coulomb  (AA|BC):
                  0          1          2    
      0      -0.000248   0.000000   0.000000
      1       0.000000  -0.000344   0.000031
      2       0.000000   0.000031   0.000593
Three-Center-Exchange (AB|AC):
                  0          1          2    
      0       0.000331   0.000000   0.000000
      1       0.000000   0.000329   0.000008
      2       0.000000   0.000008  -0.000660
Four-Center           (AB|CD):
                  0          1          2    
      0      -0.000142   0.000000  -0.000000
      1       0.000000  -0.000138  -0.000004
      2      -0.000000  -0.000004   0.000280
ALPHA-PART
                  0          1          2    
      0     -4998.765568   0.000002  -0.000000
      1       0.000001 -4998.767002   0.000116
      2      -0.000002   0.000209 -4997.057452
BETA-PART
                  0          1          2    
      0     4998.861622  -0.000002   0.000001
      1      -0.000001 4998.863063  -0.000115
      2       0.000002  -0.000225 4997.019364
ALPHA->BETA-PART
                  0          1          2    
      0     4976.346123  -0.000003   0.000000
      1      -0.000001 4976.346731  -0.000080
      2       0.000002  -0.000046 4974.058153
BETA->ALPHA-PART
                  0          1          2    
      0     -4975.840203   0.000004   0.000001
      1       0.000001 -4975.840444   0.000049
      2      -0.000001   0.000018 -4974.567122

Individual contributions (in cm**-1)
                                   D         E
SPIN-SPIN                  :   0.11658   -0.00001
  Exchange vs Coulomb
  Coulomb                  :   0.04093   -0.00001
  Exchange                 :   0.07565   -0.00000
  One through four center contributions:
  1-center                 :   0.11934    0.00010
  2-center-Coulomb         :  -0.00647    0.00003
  2-center-Exchange        :   0.01475    0.00000
  2-center-Hybrid          :  -0.01136   -0.00019
  3-center-Coulomb         :   0.00089    0.00005
  3-center-Exchange        :  -0.00099    0.00000
  4-center                 :   0.00042   -0.00000
SPIN-ORBIT                 :  -1.14922   -0.00019
SOMO->VMO  (alpha->alpha)  :   1.70883    0.00072
DOMO->SOMO (beta ->beta )  :  -1.84298   -0.00072
SOMO->SOMO (alpha->beta )  :  -2.28827   -0.00030
DOMO->VMO  (beta ->alpha)  :   1.27320    0.00012


Maximum memory used throughout the entire EPRNMR-calculation: 2714.3 MB

Timings for individual modules:

Sum of individual times         ...     7521.396 sec (= 125.357 min)
GTO integral calculation        ...       10.226 sec (=   0.170 min)   0.1 %
Spin-Orbit-Coupling Matrices    ...       40.541 sec (=   0.676 min)   0.5 %
SCF iterations                  ...     6594.682 sec (= 109.911 min)  87.7 %
EPR/NMR calculation             ...      875.948 sec (=  14.599 min)  11.6 %
                             ****ORCA TERMINATED NORMALLY****
TOTAL RUN TIME: 0 days 2 hours 5 minutes 27 seconds 799 msec
