  191  191   40    2
  0.1195271E+02  0.1299435E-08  0.1299435E-08  0.1561204E-08  0.5000000E-15
  1.000000000000000E-004
  CAR 
 zno                                     
   1714      1   1344
 
  0.0000000E+00  0.0000000E+00  0.0000000E+00  0.1000000E+01
      1        -21.177458      -21.162536   1.000000   1.000000
      2        -20.925195      -20.909796   1.000000   1.000000
      3        -20.921553      -20.905433   1.000000   1.000000
      4        -20.824796      -20.822958   1.000000   1.000000
      5        -20.702613      -20.703678   1.000000   1.000000
      6        -20.660909      -20.661495   1.000000   1.000000
      7        -20.595633      -20.595227   1.000000   1.000000
      8        -20.595038      -20.594647   1.000000   1.000000
      9        -20.549167      -20.531139   1.000000   1.000000
     10        -20.538169      -20.540078   1.000000   1.000000
     11        -20.538932      -20.537445   1.000000   1.000000
     12        -20.437252      -20.536105   1.000000   1.000000
     13        -20.520615      -20.465270   1.000000   1.000000
     14        -20.462814      -20.464784   1.000000   1.000000
     15        -20.410192      -20.439378   1.000000   1.000000
     16        -20.459521      -20.409872   1.000000   1.000000
     17        -20.409406      -20.409665   1.000000   1.000000
     18        -20.402494      -20.401835   1.000000   1.000000
     19        -20.402266      -20.401620   1.000000   1.000000
     20        -20.387636      -20.387508   1.000000   1.000000
     21        -20.387448      -20.387655   1.000000   1.000000
     22        -20.384545      -20.305536   1.000000   1.000000
     23        -20.379114      -20.379235   1.000000   1.000000
     24        -20.359057      -20.372642   1.000000   1.000000
     25        -20.317251      -20.323323   1.000000   1.000000
     26        -20.290589      -20.352206   1.000000   1.000000
     27        -20.264222      -20.265521   1.000000   1.000000
     28        -20.259267      -20.238210   1.000000   1.000000
     29        -20.219379      -20.234221   1.000000   1.000000
     30        -20.234520      -20.217362   1.000000   1.000000
     31        -20.203204      -20.200724   1.000000   1.000000
     32        -20.200553      -20.254979   1.000000   1.000000
     33        -20.167405      -20.166296   1.000000   1.000000
     34        -20.160882      -20.164753   1.000000   1.000000
     35        -20.210674      -20.195839   1.000000   1.000000
     36        -20.175521      -20.175778   1.000000   1.000000
     37        -20.156612      -20.168124   1.000000   1.000000
     38        -20.165657      -20.166434   1.000000   1.000000
     39        -20.226153      -20.158058   1.000000   1.000000
     40        -20.189822      -20.157391   1.000000   1.000000
     41        -20.159470      -20.212524   1.000000   1.000000
     42        -20.154824      -20.186303   1.000000   1.000000
     43        -20.146123      -20.150145   1.000000   1.000000
     44        -20.124292      -20.123470   1.000000   1.000000
     45        -20.116263      -20.112986   1.000000   1.000000
     46        -20.116414      -20.118131   1.000000   1.000000
     47        -20.110280      -20.109219   1.000000   1.000000
     48        -20.096291      -20.113443   1.000000   1.000000
     49        -20.104164      -20.106937   1.000000   1.000000
     50        -20.103569      -20.103355   1.000000   1.000000
     51        -20.102673      -20.102654   1.000000   1.000000
     52        -20.099368      -20.090689   1.000000   1.000000
     53        -20.049712      -20.090710   1.000000   1.000000
     54        -20.073000      -20.090766   1.000000   1.000000
     55        -20.091464      -20.072133   1.000000   1.000000
     56        -20.090980      -20.080438   1.000000   1.000000
     57        -20.062907      -20.039094   1.000000   1.000000
     58        -20.038272      -20.070339   1.000000   1.000000
     59        -20.066247      -20.070395   1.000000   1.000000
     60        -20.071703      -20.080202   1.000000   1.000000
     61        -20.055249      -20.053363   1.000000   1.000000
     62        -20.054419      -20.066531   1.000000   1.000000
     63        -20.052291      -20.054563   1.000000   1.000000
     64        -20.079702      -20.053116   1.000000   1.000000
     65        -20.079749      -20.038271   1.000000   1.000000
     66        -20.033320      -20.033496   1.000000   1.000000
     67        -19.998756      -19.999723   1.000000   1.000000
     68        -19.995800      -19.996325   1.000000   1.000000
     69        -19.995937      -19.996405   1.000000   1.000000
     70        -19.986678      -19.989264   1.000000   1.000000
     71        -19.983678      -19.983973   1.000000   1.000000
     72        -19.984731      -19.986524   1.000000   1.000000
     73        -19.954972      -19.954056   1.000000   1.000000
     74        -19.953415      -19.952893   1.000000   1.000000
     75        -19.980081      -19.978807   1.000000   1.000000
     76        -19.978430      -19.968630   1.000000   1.000000
     77        -19.968750      -19.975868   1.000000   1.000000
     78        -19.966256      -19.963120   1.000000   1.000000
     79        -19.943664      -19.941412   1.000000   1.000000
     80        -19.942387      -19.941944   1.000000   1.000000
     81        -19.967785      -19.966051   1.000000   1.000000
     82        -19.961278      -19.964915   1.000000   1.000000
     83        -19.941199      -19.940240   1.000000   1.000000
     84        -19.939776      -19.938976   1.000000   1.000000
     85        -19.939638      -19.938839   1.000000   1.000000
     86        -19.934596      -19.933313   1.000000   1.000000
     87        -19.900173      -19.899630   1.000000   1.000000
     88        -19.890905      -19.891524   1.000000   1.000000
     89        -19.890899      -19.891529   1.000000   1.000000
     90        -19.878262      -19.877687   1.000000   1.000000
     91        -19.867587      -19.866646   1.000000   1.000000
     92        -19.867479      -19.866584   1.000000   1.000000
     93        -19.863889      -19.863113   1.000000   1.000000
     94        -19.863800      -19.863025   1.000000   1.000000
     95        -19.862535      -19.861506   1.000000   1.000000
     96         -8.114754       -8.088602   1.000000   1.000000
     97         -8.085197       -8.111677   1.000000   1.000000
     98         -8.085299       -8.084408   1.000000   1.000000
     99         -8.070236       -8.069150   1.000000   1.000000
    100         -8.070895       -8.048276   1.000000   1.000000
    101         -8.068392       -8.065115   1.000000   1.000000
    102         -8.047638       -8.067353   1.000000   1.000000
    103         -8.049214       -8.056600   1.000000   1.000000
    104         -8.024654       -8.043272   1.000000   1.000000
    105         -8.036845       -8.020678   1.000000   1.000000
    106         -8.028629       -8.012762   1.000000   1.000000
    107         -8.052577       -8.012339   1.000000   1.000000
    108         -8.005944       -8.005293   1.000000   1.000000
    109         -7.980028       -7.993928   1.000000   1.000000
    110         -7.967827       -8.001971   1.000000   1.000000
    111         -7.993781       -7.990730   1.000000   1.000000
    112         -8.005382       -7.973438   1.000000   1.000000
    113         -7.963734       -7.965703   1.000000   1.000000
    114         -7.988105       -7.965395   1.000000   1.000000
    115         -7.964738       -7.930448   1.000000   1.000000
    116         -7.950659       -7.957595   1.000000   1.000000
    117         -7.944248       -7.942615   1.000000   1.000000
    118         -7.951091       -7.938961   1.000000   1.000000
    119         -7.903054       -7.963287   1.000000   1.000000
    120         -7.927772       -7.904211   1.000000   1.000000
    121         -7.893869       -7.890861   1.000000   1.000000
    122         -7.888168       -7.885801   1.000000   1.000000
    123         -7.918857       -7.909651   1.000000   1.000000
    124         -7.851885       -7.915608   1.000000   1.000000
    125         -7.886208       -7.845409   1.000000   1.000000
    126         -7.911239       -7.886370   1.000000   1.000000
    127         -7.881979       -7.881425   1.000000   1.000000
    128         -7.880035       -7.881107   1.000000   1.000000
    129         -7.848176       -7.850207   1.000000   1.000000
    130         -7.887581       -7.847983   1.000000   1.000000
    131         -7.841853       -7.830637   1.000000   1.000000
    132         -7.832028       -7.876867   1.000000   1.000000
    133         -7.846829       -7.840030   1.000000   1.000000
    134         -7.840974       -7.847300   1.000000   1.000000
    135         -7.820901       -7.839263   1.000000   1.000000
    136         -7.830455       -7.829507   1.000000   1.000000
    137         -7.829554       -7.829348   1.000000   1.000000
    138         -7.819186       -7.819590   1.000000   1.000000
    139         -7.838886       -7.819370   1.000000   1.000000
    140         -7.807308       -7.806780   1.000000   1.000000
    141         -7.815859       -7.801994   1.000000   1.000000
    142         -7.803184       -7.795766   1.000000   1.000000
    143         -7.803126       -7.815695   1.000000   1.000000
    144         -7.802319       -7.795946   1.000000   1.000000
    145         -7.780948       -7.794683   1.000000   1.000000
    146         -7.793393       -7.794395   1.000000   1.000000
    147         -7.776788       -7.785046   1.000000   1.000000
    148         -7.785153       -7.785165   1.000000   1.000000
    149         -7.791588       -7.776826   1.000000   1.000000
    150         -7.772008       -7.774472   1.000000   1.000000
    151         -7.775872       -7.775736   1.000000   1.000000
    152         -7.785327       -7.774176   1.000000   1.000000
    153         -7.775243       -7.771301   1.000000   1.000000
    154         -7.769164       -7.766389   1.000000   1.000000
    155         -7.769197       -7.766516   1.000000   1.000000
    156         -7.760218       -7.741934   1.000000   1.000000
    157         -7.741783       -7.741434   1.000000   1.000000
    158         -7.742677       -7.747025   1.000000   1.000000
    159         -7.748240       -7.746039   1.000000   1.000000
    160         -7.766984       -7.740408   1.000000   1.000000
    161         -7.746046       -7.765188   1.000000   1.000000
    162         -7.740688       -7.758996   1.000000   1.000000
    163         -7.735879       -7.735927   1.000000   1.000000
    164         -7.736645       -7.736493   1.000000   1.000000
    165         -7.736583       -7.736380   1.000000   1.000000
    166         -7.725423       -7.734484   1.000000   1.000000
    167         -7.717330       -7.734557   1.000000   1.000000
    168         -7.734726       -7.734039   1.000000   1.000000
    169         -7.726313       -7.715968   1.000000   1.000000
    170         -7.734137       -7.707900   1.000000   1.000000
    171         -7.700854       -7.708426   1.000000   1.000000
    172         -7.714588       -7.712795   1.000000   1.000000
    173         -7.707698       -7.715563   1.000000   1.000000
    174         -7.707811       -7.703927   1.000000   1.000000
    175         -7.699311       -7.703897   1.000000   1.000000
    176         -7.690235       -7.672635   1.000000   1.000000
    177         -7.675483       -7.697514   1.000000   1.000000
    178         -7.702565       -7.697533   1.000000   1.000000
    179         -7.703039       -7.680160   1.000000   1.000000
    180         -7.650136       -7.695984   1.000000   1.000000
    181         -7.695936       -7.681571   1.000000   1.000000
    182         -7.682048       -7.662508   1.000000   1.000000
    183         -7.682596       -7.687800   1.000000   1.000000
    184         -7.687560       -7.686729   1.000000   1.000000
    185         -7.670632       -7.678482   1.000000   1.000000
    186         -7.685263       -7.660035   1.000000   1.000000
    187         -7.669895       -7.669761   1.000000   1.000000
    188         -7.662563       -7.662083   1.000000   1.000000
    189         -7.669514       -7.653524   1.000000   1.000000
    190         -7.662174       -7.668968   1.000000   1.000000
    191         -7.655709       -7.681813   1.000000   1.000000
    192         -7.651463       -7.644617   1.000000   1.000000
    193         -7.657485       -7.645318   1.000000   1.000000
    194         -7.645361       -7.647841   1.000000   1.000000
    195         -7.645393       -7.646376   1.000000   1.000000
    196         -7.641574       -7.641288   1.000000   1.000000
    197         -7.641560       -7.642476   1.000000   1.000000
    198         -7.636687       -7.633029   1.000000   1.000000
    199         -7.636640       -7.636374   1.000000   1.000000
    200         -7.632719       -7.635143   1.000000   1.000000
    201         -7.617627       -7.630168   1.000000   1.000000
    202         -7.630950       -7.630134   1.000000   1.000000
    203         -7.613394       -7.613131   1.000000   1.000000
    204         -7.613874       -7.616031   1.000000   1.000000
    205         -7.620898       -7.621988   1.000000   1.000000
    206         -7.629769       -7.623398   1.000000   1.000000
    207         -7.625182       -7.611780   1.000000   1.000000
    208         -7.611731       -7.608570   1.000000   1.000000
    209         -7.603956       -7.609416   1.000000   1.000000
    210         -7.582072       -7.606094   1.000000   1.000000
    211         -7.606329       -7.603507   1.000000   1.000000
    212         -7.590175       -7.601400   1.000000   1.000000
    213         -7.589464       -7.579142   1.000000   1.000000
    214         -7.600058       -7.583414   1.000000   1.000000
    215         -7.605230       -7.577699   1.000000   1.000000
    216         -7.574554       -7.576546   1.000000   1.000000
    217         -7.577285       -7.585049   1.000000   1.000000
    218         -7.576958       -7.586401   1.000000   1.000000
    219         -7.571465       -7.574270   1.000000   1.000000
    220         -7.572614       -7.569926   1.000000   1.000000
    221         -7.569741       -7.569834   1.000000   1.000000
    222         -7.569828       -7.569856   1.000000   1.000000
    223         -7.555723       -7.556464   1.000000   1.000000
    224         -7.556995       -7.555651   1.000000   1.000000
    225         -7.552486       -7.552184   1.000000   1.000000
    226         -7.551466       -7.557354   1.000000   1.000000
    227         -7.557109       -7.543973   1.000000   1.000000
    228         -7.540027       -7.550757   1.000000   1.000000
    229         -7.534991       -7.540047   1.000000   1.000000
    230         -7.532634       -7.542985   1.000000   1.000000
    231         -7.543115       -7.531565   1.000000   1.000000
    232         -7.519088       -7.523183   1.000000   1.000000
    233         -7.540890       -7.516864   1.000000   1.000000
    234         -7.522582       -7.522124   1.000000   1.000000
    235         -7.517428       -7.530491   1.000000   1.000000
    236         -7.512304       -7.503991   1.000000   1.000000
    237         -7.510790       -7.517881   1.000000   1.000000
    238         -7.519575       -7.509436   1.000000   1.000000
    239         -7.510109       -7.513948   1.000000   1.000000
    240         -7.499551       -7.504746   1.000000   1.000000
    241         -7.499505       -7.498991   1.000000   1.000000
    242         -7.497099       -7.496684   1.000000   1.000000
    243         -7.487696       -7.487344   1.000000   1.000000
    244         -7.487771       -7.487244   1.000000   1.000000
    245         -7.486503       -7.486547   1.000000   1.000000
    246         -7.479914       -7.480385   1.000000   1.000000
    247         -7.478539       -7.476865   1.000000   1.000000
    248         -7.478521       -7.476817   1.000000   1.000000
    249         -7.468347       -7.468243   1.000000   1.000000
    250         -7.467697       -7.467765   1.000000   1.000000
    251         -7.467755       -7.467882   1.000000   1.000000
    252         -7.465324       -7.465681   1.000000   1.000000
    253         -7.465375       -7.465717   1.000000   1.000000
    254         -7.445965       -7.461541   1.000000   1.000000
    255         -7.461400       -7.445775   1.000000   1.000000
    256         -7.449922       -7.445827   1.000000   1.000000
    257         -7.450308       -7.449812   1.000000   1.000000
    258         -7.443527       -7.449612   1.000000   1.000000
    259         -7.421749       -7.435395   1.000000   1.000000
    260         -7.436454       -7.442600   1.000000   1.000000
    261         -7.444796       -7.442283   1.000000   1.000000
    262         -7.435463       -7.428399   1.000000   1.000000
    263         -7.435847       -7.430138   1.000000   1.000000
    264         -7.432868       -7.434827   1.000000   1.000000
    265         -7.441949       -7.436141   1.000000   1.000000
    266         -7.432518       -7.425191   1.000000   1.000000
    267         -7.424832       -7.432632   1.000000   1.000000
    268         -7.413074       -7.420097   1.000000   1.000000
    269         -7.412511       -7.420216   1.000000   1.000000
    270         -7.425514       -7.411371   1.000000   1.000000
    271         -7.419984       -7.406025   1.000000   1.000000
    272         -7.406418       -7.394789   1.000000   1.000000
    273         -7.405253       -7.405063   1.000000   1.000000
    274         -7.405401       -7.411183   1.000000   1.000000
    275         -7.395798       -7.395316   1.000000   1.000000
    276         -7.395770       -7.392442   1.000000   1.000000
    277         -7.392709       -7.394195   1.000000   1.000000
    278         -7.392555       -7.404074   1.000000   1.000000
    279         -7.389201       -7.388314   1.000000   1.000000
    280         -7.389210       -7.365445   1.000000   1.000000
    281         -7.386146       -7.388163   1.000000   1.000000
    282         -7.365896       -7.385545   1.000000   1.000000
    283         -7.386015       -7.382838   1.000000   1.000000
    284         -7.383452       -7.385731   1.000000   1.000000
    285         -7.383121       -7.382796   1.000000   1.000000
    286         -7.378938       -7.380859   1.000000   1.000000
    287         -7.382102       -7.378710   1.000000   1.000000
    288         -7.378803       -7.378571   1.000000   1.000000
    289         -7.372489       -7.372307   1.000000   1.000000
    290         -7.361202       -7.360995   1.000000   1.000000
    291         -7.361152       -7.361080   1.000000   1.000000
    292         -7.360706       -7.343658   1.000000   1.000000
    293         -7.343545       -7.344421   1.000000   1.000000
    294         -7.323837       -7.359927   1.000000   1.000000
    295         -7.328171       -7.322907   1.000000   1.000000
    296         -7.343511       -7.343108   1.000000   1.000000
    297         -7.336049       -7.338096   1.000000   1.000000
    298         -7.354955       -7.313627   1.000000   1.000000
    299         -7.332409       -7.333827   1.000000   1.000000
    300         -7.334162       -7.353939   1.000000   1.000000
    301         -7.339442       -7.330880   1.000000   1.000000
    302         -7.319953       -7.337458   1.000000   1.000000
    303         -7.336740       -7.318969   1.000000   1.000000
    304         -7.330810       -7.330512   1.000000   1.000000
    305         -7.320410       -7.319207   1.000000   1.000000
    306         -7.310811       -7.290245   1.000000   1.000000
    307         -7.299528       -7.294643   1.000000   1.000000
    308         -7.286942       -7.299037   1.000000   1.000000
    309         -7.274649       -7.295045   1.000000   1.000000
    310         -7.268314       -7.320374   1.000000   1.000000
    311         -7.295561       -7.292240   1.000000   1.000000
    312         -7.309827       -7.307867   1.000000   1.000000
    313         -7.293963       -7.285602   1.000000   1.000000
    314         -7.250644       -7.266262   1.000000   1.000000
    315         -7.243449       -7.266143   1.000000   1.000000
    316         -7.247795       -7.250188   1.000000   1.000000
    317         -7.262084       -7.241562   1.000000   1.000000
    318         -7.275086       -7.247522   1.000000   1.000000
    319         -7.290359       -7.239473   1.000000   1.000000
    320         -7.238057       -7.237923   1.000000   1.000000
    321         -7.238024       -7.232432   1.000000   1.000000
    322         -7.229892       -7.228851   1.000000   1.000000
    323         -7.228585       -7.209566   1.000000   1.000000
    324         -7.228598       -7.253798   1.000000   1.000000
    325         -7.227063       -7.227377   1.000000   1.000000
    326         -7.216163       -7.215839   1.000000   1.000000
    327         -7.198031       -7.208833   1.000000   1.000000
    328         -7.209274       -7.226427   1.000000   1.000000
    329         -7.209716       -7.198401   1.000000   1.000000
    330         -7.221956       -7.221671   1.000000   1.000000
    331         -7.197342       -7.197435   1.000000   1.000000
    332         -7.185691       -7.192806   1.000000   1.000000
    333         -7.192366       -7.191993   1.000000   1.000000
    334         -7.191486       -7.189384   1.000000   1.000000
    335         -7.186367       -7.181354   1.000000   1.000000
    336         -7.181941       -7.198927   1.000000   1.000000
    337         -7.199085       -7.163217   1.000000   1.000000
    338         -7.134149       -7.170778   1.000000   1.000000
    339         -7.169187       -7.145647   1.000000   1.000000
    340         -7.159039       -7.168473   1.000000   1.000000
    341         -7.168491       -7.178610   1.000000   1.000000
    342         -7.161175       -7.158412   1.000000   1.000000
    343         -7.155457       -7.157568   1.000000   1.000000
    344         -7.157799       -7.153665   1.000000   1.000000
    345         -7.153571       -7.153971   1.000000   1.000000
    346         -7.144082       -7.154691   1.000000   1.000000
    347         -7.153933       -7.128478   1.000000   1.000000
    348         -7.142302       -7.129736   1.000000   1.000000
    349         -7.127547       -7.142331   1.000000   1.000000
    350         -7.137124       -7.143289   1.000000   1.000000
    351         -7.114833       -7.116840   1.000000   1.000000
    352         -7.137730       -7.132350   1.000000   1.000000
    353         -7.104031       -7.103985   1.000000   1.000000
    354         -7.095052       -7.095269   1.000000   1.000000
    355         -7.100779       -7.091462   1.000000   1.000000
    356         -7.082652       -7.085833   1.000000   1.000000
    357         -7.091333       -7.082948   1.000000   1.000000
    358         -7.085845       -7.098631   1.000000   1.000000
    359         -7.053409       -7.077673   1.000000   1.000000
    360         -7.078103       -7.056466   1.000000   1.000000
    361         -7.065009       -7.077594   1.000000   1.000000
    362         -7.052816       -7.046753   1.000000   1.000000
    363         -7.046202       -7.046843   1.000000   1.000000
    364         -7.038827       -7.053270   1.000000   1.000000
    365         -7.046658       -7.014132   1.000000   1.000000
    366         -7.034902       -7.058957   1.000000   1.000000
    367         -7.070981       -7.030711   1.000000   1.000000
    368         -7.027902       -7.032150   1.000000   1.000000
    369         -7.031641       -7.027334   1.000000   1.000000
    370         -7.017914       -7.037428   1.000000   1.000000
    371         -7.007542       -7.007817   1.000000   1.000000
    372         -7.007151       -7.006867   1.000000   1.000000
    373         -7.002181       -6.986908   1.000000   1.000000
    374         -6.997908       -7.014158   1.000000   1.000000
    375         -7.002597       -6.985384   1.000000   1.000000
    376         -6.982310       -6.997410   1.000000   1.000000
    377         -6.984836       -6.974608   1.000000   1.000000
    378         -6.989624       -6.973884   1.000000   1.000000
    379         -6.974185       -6.988892   1.000000   1.000000
    380         -6.982121       -6.976799   1.000000   1.000000
    381         -6.969748       -6.993355   1.000000   1.000000
    382         -6.958384       -6.969353   1.000000   1.000000
    383         -6.964789       -6.952901   1.000000   1.000000
    384         -6.948191       -6.948173   1.000000   1.000000
    385         -6.948113       -6.948082   1.000000   1.000000
    386         -6.944112       -6.947798   1.000000   1.000000
    387         -6.947346       -6.935799   1.000000   1.000000
    388         -6.934285       -6.943820   1.000000   1.000000
    389         -6.925530       -6.923099   1.000000   1.000000
    390         -6.925491       -6.942591   1.000000   1.000000
    391         -6.943841       -6.918319   1.000000   1.000000
    392         -6.917973       -6.918000   1.000000   1.000000
    393         -6.917823       -6.923001   1.000000   1.000000
    394         -6.897713       -6.917846   1.000000   1.000000
    395         -6.917370       -6.901832   1.000000   1.000000
    396         -6.896898       -6.884376   1.000000   1.000000
    397         -6.900752       -6.897216   1.000000   1.000000
    398         -6.911481       -6.909817   1.000000   1.000000
    399         -6.883625       -6.894697   1.000000   1.000000
    400         -6.883636       -6.882769   1.000000   1.000000
    401         -6.882278       -6.875637   1.000000   1.000000
    402         -6.875737       -6.874804   1.000000   1.000000
    403         -6.840785       -6.842406   1.000000   1.000000
    404         -6.875623       -6.840472   1.000000   1.000000
    405         -6.846449       -6.845509   1.000000   1.000000
    406         -6.854892       -6.872460   1.000000   1.000000
    407         -6.838826       -6.835843   1.000000   1.000000
    408         -6.838567       -6.880914   1.000000   1.000000
    409         -6.856594       -6.851220   1.000000   1.000000
    410         -6.835648       -6.847560   1.000000   1.000000
    411         -6.833287       -6.834955   1.000000   1.000000
    412         -6.827177       -6.827102   1.000000   1.000000
    413         -6.861769       -6.832670   1.000000   1.000000
    414         -6.791033       -6.812234   1.000000   1.000000
    415         -6.825195       -6.821485   1.000000   1.000000
    416         -6.810564       -6.805837   1.000000   1.000000
    417         -6.811550       -6.799667   1.000000   1.000000
    418         -6.820036       -6.810377   1.000000   1.000000
    419         -6.798998       -6.798038   1.000000   1.000000
    420         -6.801677       -6.798571   1.000000   1.000000
    421         -6.798571       -6.824026   1.000000   1.000000
    422         -6.780702       -6.780323   1.000000   1.000000
    423         -6.779914       -6.780344   1.000000   1.000000
    424         -6.793689       -6.778944   1.000000   1.000000
    425         -6.769150       -6.776799   1.000000   1.000000
    426         -6.776814       -6.776742   1.000000   1.000000
    427         -6.776257       -6.776113   1.000000   1.000000
    428         -6.766968       -6.766803   1.000000   1.000000
    429         -6.761789       -6.766847   1.000000   1.000000
    430         -6.760035       -6.760683   1.000000   1.000000
    431         -6.760752       -6.760673   1.000000   1.000000
    432         -6.748203       -6.748545   1.000000   1.000000
    433         -6.773072       -6.744650   1.000000   1.000000
    434         -6.757874       -6.747879   1.000000   1.000000
    435         -6.744601       -6.737511   1.000000   1.000000
    436         -6.732886       -6.738124   1.000000   1.000000
    437         -6.733442       -6.757755   1.000000   1.000000
    438         -6.741263       -6.731766   1.000000   1.000000
    439         -6.731576       -6.738123   1.000000   1.000000
    440         -6.737653       -6.740181   1.000000   1.000000
    441         -6.738929       -6.731204   1.000000   1.000000
    442         -6.746542       -6.756810   1.000000   1.000000
    443         -6.735287       -6.730225   1.000000   1.000000
    444         -6.729829       -6.729607   1.000000   1.000000
    445         -6.727503       -6.729337   1.000000   1.000000
    446         -6.729607       -6.732101   1.000000   1.000000
    447         -6.728733       -6.726688   1.000000   1.000000
    448         -6.722357       -6.724926   1.000000   1.000000
    449         -6.724935       -6.724747   1.000000   1.000000
    450         -6.722042       -6.721350   1.000000   1.000000
    451         -6.713986       -6.713999   1.000000   1.000000
    452         -6.724555       -6.712564   1.000000   1.000000
    453         -6.712848       -6.707768   1.000000   1.000000
    454         -6.712961       -6.706074   1.000000   1.000000
    455         -6.706362       -6.710730   1.000000   1.000000
    456         -6.694078       -6.691677   1.000000   1.000000
    457         -6.706151       -6.720947   1.000000   1.000000
    458         -6.698673       -6.700648   1.000000   1.000000
    459         -6.688475       -6.688342   1.000000   1.000000
    460         -6.688480       -6.688347   1.000000   1.000000
    461         -6.686076       -6.686019   1.000000   1.000000
    462         -6.686059       -6.686002   1.000000   1.000000
    463         -6.680667       -6.680623   1.000000   1.000000
    464         -6.666793       -6.680622   1.000000   1.000000