       N       E                     dE             d eps       ncg     rms          ort
SDA:   1    -0.121956925256E+04   -0.12196E+04   -0.11589E+01  1344   0.386E+01 0.000E+00
DMP:   2    -0.122023570118E+04   -0.66645E+00   -0.22293E+00  1344   0.321E+00 0.741E+00
DMP:   3    -0.122013847416E+04    0.97227E-01   -0.32919E-01  1344   0.972E+00-0.151E+01
DMP:   4    -0.122012459443E+04    0.13880E-01   -0.23862E+00  1344   0.914E+00-0.208E+00
DMP:   5    -0.122026680701E+04   -0.14221E+00   -0.10182E+00  1344   0.271E+00 0.120E+00
DMP:   6    -0.122030853305E+04   -0.41726E-01   -0.53979E-01  1344   0.193E+00-0.234E-01
DMP:   7    -0.122032847391E+04   -0.19941E-01   -0.26873E-01  1344   0.126E+00-0.636E-01
DMP:   8    -0.122032752038E+04    0.95353E-03   -0.10851E-01  1344   0.107E+00-0.125E+00
DMP:   9    -0.122032515526E+04    0.23651E-02   -0.18449E-01  1344   0.939E-01-0.569E-01
DMP:  10    -0.122033544176E+04   -0.10287E-01   -0.20688E-01  1344   0.645E-01 0.778E-02
DMP:  11    -0.122034886124E+04   -0.13419E-01   -0.13117E-01  1344   0.311E-01 0.222E-01
DMP:  12    -0.122035582241E+04   -0.69612E-02   -0.46964E-02  1344   0.139E-01 0.301E-02
DMP:  13    -0.122035715110E+04   -0.13287E-02   -0.19079E-02  1344   0.111E-01-0.826E-02
DMP:  14    -0.122035740273E+04   -0.25162E-03   -0.15036E-02  1344   0.817E-02-0.554E-02
DMP:  15    -0.122035798612E+04   -0.58340E-03   -0.15404E-02  1344   0.585E-02-0.126E-02
DMP:  16    -0.122035897484E+04   -0.98872E-03   -0.14119E-02  1344   0.383E-02 0.153E-02
DMP:  17    -0.122035989690E+04   -0.92205E-03   -0.83181E-03  1344   0.191E-02 0.151E-02
DMP:  18    -0.122036037845E+04   -0.48156E-03   -0.38765E-03  1344   0.104E-02 0.436E-03
DMP:  19    -0.122036056289E+04   -0.18443E-03   -0.16868E-03  1344   0.613E-03-0.896E-04
DMP:  20    -0.122036062988E+04   -0.66996E-04   -0.11014E-03  1344   0.440E-03-0.129E-03
DMP:  21    -0.122036069205E+04   -0.62165E-04   -0.98877E-04  1344   0.303E-03 0.458E-04
DMP:  22    -0.122036075953E+04   -0.67479E-04   -0.77261E-04  1344   0.188E-03 0.121E-03
DMP:  23    -0.122036081613E+04   -0.56605E-04   -0.59344E-04  1344   0.129E-03 0.120E-03
DMP:  24    -0.122036086184E+04   -0.45706E-04   -0.43816E-04  1344   0.849E-04 0.107E-03
DMP:  25    -0.122036089668E+04   -0.34845E-04   -0.33545E-04  1344   0.626E-04 0.864E-04
DMP:  26    -0.122036092608E+04   -0.29401E-04   -0.31451E-04  1344   0.571E-04 0.837E-04
DMP:  27    -0.122036095599E+04   -0.29907E-04   -0.32550E-04  1344   0.552E-04 0.935E-04
DMP:  28    -0.122036098819E+04   -0.32201E-04   -0.34728E-04  1344   0.560E-04 0.105E-03
DMP:  29    -0.122036102309E+04   -0.34901E-04   -0.37149E-04  1344   0.580E-04 0.116E-03
DMP:  30    -0.122036106064E+04   -0.37553E-04   -0.39856E-04  1344   0.613E-04 0.125E-03
DMP:  31    -0.122036110118E+04   -0.40535E-04   -0.43205E-04  1344   0.662E-04 0.137E-03
DMP:  32    -0.122036114533E+04   -0.44151E-04   -0.47172E-04  1344   0.721E-04 0.149E-03
DMP:  33    -0.122036119368E+04   -0.48347E-04   -0.51703E-04  1344   0.788E-04 0.164E-03
DMP:  34    -0.122036124673E+04   -0.53054E-04   -0.56754E-04  1344   0.864E-04 0.180E-03
DMP:  35    -0.122036130497E+04   -0.58239E-04   -0.62325E-04  1344   0.949E-04 0.198E-03
DMP:  36    -0.122036136891E+04   -0.63943E-04   -0.68455E-04  1344   0.104E-03 0.218E-03
DMP:  37    -0.122036143914E+04   -0.70234E-04   -0.75190E-04  1344   0.114E-03 0.239E-03
DMP:  38    -0.122036151630E+04   -0.77160E-04   -0.82594E-04  1344   0.126E-03 0.263E-03
DMP:  39    -0.122036160106E+04   -0.84757E-04   -0.90738E-04  1344   0.138E-03 0.288E-03
DMP:  40    -0.122036169418E+04   -0.93121E-04   -0.99689E-04  1344   0.152E-03 0.317E-03
DMP:  41    -0.122036179650E+04   -0.10231E-03   -0.10953E-03  1344   0.167E-03 0.348E-03
DMP:  42    -0.122036190892E+04   -0.11242E-03   -0.12034E-03  1344   0.183E-03 0.383E-03
DMP:  43    -0.122036203247E+04   -0.12355E-03   -0.13223E-03  1344   0.201E-03 0.420E-03
DMP:  44    -0.122036216829E+04   -0.13582E-03   -0.14531E-03  1344   0.221E-03 0.462E-03
DMP:  45    -0.122036231758E+04   -0.14929E-03   -0.15970E-03  1344   0.243E-03 0.508E-03
DMP:  46    -0.122036248169E+04   -0.16411E-03   -0.17553E-03  1344   0.267E-03 0.558E-03
DMP:  47    -0.122036266210E+04   -0.18041E-03   -0.19295E-03  1344   0.294E-03 0.613E-03
DMP:  48    -0.122036286046E+04   -0.19836E-03   -0.21212E-03  1344   0.323E-03 0.674E-03
DMP:  49    -0.122036307857E+04   -0.21811E-03   -0.23322E-03  1344   0.355E-03 0.741E-03
DMP:  50    -0.122036331840E+04   -0.23983E-03   -0.25649E-03  1344   0.391E-03 0.814E-03
DMP:  51    -0.122036358204E+04   -0.26365E-03   -0.28261E-03  1344   0.432E-03 0.895E-03
DMP:  52    -0.122036387137E+04   -0.28933E-03   -0.31572E-03  1344   0.495E-03 0.978E-03
DMP:  53    -0.122036418489E+04   -0.31352E-03   -0.38448E-03  1344   0.696E-03 0.103E-02
DMP:  54    -0.122036450053E+04   -0.31564E-03   -0.64189E-03  1344   0.168E-02 0.812E-03
DMP:  55    -0.122036471527E+04   -0.21474E-03   -0.16515E-02  1344   0.592E-02-0.720E-03
DMP:  56    -0.122036454158E+04    0.17369E-03   -0.47489E-02  1344   0.196E-01-0.668E-02
DMP:  57    -0.122036347186E+04    0.10697E-02   -0.12093E-01  1344   0.534E-01-0.230E-01
DMP:  58    -0.122036068463E+04    0.27872E-02   -0.27664E-01  1344   0.126E+00-0.589E-01
DMP:  59    -0.122035418399E+04    0.65006E-02   -0.60640E-01  1344   0.279E+00-0.135E+00
DMP:  60    -0.122034047728E+04    0.13707E-01   -0.12666E+00  1344   0.589E+00-0.293E+00
DMP:  61    -0.122031156297E+04    0.28914E-01   -0.27094E+00  1344   0.125E+01-0.613E+00
DMP:  62    -0.122023615786E+04    0.75405E-01   -0.67316E+00  1344   0.304E+01-0.140E+01
DMP:  63    -0.122000945525E+04    0.22670E+00   -0.18315E+01  1344   0.820E+01-0.368E+01
DMP:  64    -0.121949225009E+04    0.51721E+00   -0.40293E+01  1344   0.186E+02-0.906E+01
DMP:  65    -0.121901710030E+04    0.47515E+00   -0.50754E+01  1344   0.257E+02-0.154E+02
DMP:  66    -0.121943008779E+04   -0.41299E+00   -0.24858E+01  1344   0.153E+02-0.124E+02
DMP:  67    -0.122020134442E+04   -0.77126E+00   -0.23792E+00  1344   0.226E+01-0.257E+01
DMP:  68    -0.122025906992E+04   -0.57725E-01   -0.42401E+00  1344   0.164E+01-0.396E+00
DMP:  69    -0.122024457075E+04    0.14499E-01   -0.25816E+00  1344   0.170E+01-0.148E+01
DMP:  70    -0.122036969146E+04   -0.12512E+00   -0.24117E-01  1344   0.832E-01-0.494E-02
DMP:  71    -0.122033623994E+04    0.33452E-01   -0.95476E-01  1344   0.492E+00-0.305E+00
DMP:  72    -0.122037827864E+04   -0.42039E-01   -0.53525E-02  1344   0.364E-01-0.325E-01
DMP:  73    -0.122037113064E+04    0.71480E-02   -0.29419E-01  1344   0.136E+00-0.658E-01
DMP:  74    -0.122038508845E+04   -0.13958E-01   -0.39673E-02  1344   0.158E-01-0.458E-02
DMP:  75    -0.122038491094E+04    0.17751E-03   -0.96799E-02  1344   0.405E-01-0.145E-01
DMP:  76    -0.122039152033E+04   -0.66094E-02   -0.48230E-02  1344   0.935E-02 0.118E-01
DMP:  77    -0.122039405255E+04   -0.25322E-02   -0.45958E-02  1344   0.148E-01 0.888E-03
DMP:  78    -0.122039823376E+04   -0.41812E-02   -0.49919E-02  1344   0.942E-02 0.127E-01
DMP:  79    -0.122040228805E+04   -0.40543E-02   -0.43058E-02  1344   0.842E-02 0.104E-01
DMP:  80    -0.122040650824E+04   -0.42202E-02   -0.51444E-02  1344   0.934E-02 0.137E-01
DMP:  81    -0.122041153027E+04   -0.50220E-02   -0.52432E-02  1344   0.832E-02 0.161E-01
DMP:  82    -0.122041684574E+04   -0.53155E-02   -0.57852E-02  1344   0.929E-02 0.175E-01
DMP:  83    -0.122042285006E+04   -0.60043E-02   -0.65553E-02  1344   0.104E-01 0.201E-01
DMP:  84    -0.122042963143E+04   -0.67814E-02   -0.73132E-02  1344   0.116E-01 0.224E-01
DMP:  85    -0.122043725233E+04   -0.76209E-02   -0.83029E-02  1344   0.133E-01 0.252E-01
DMP:  86    -0.122044593722E+04   -0.86849E-02   -0.95046E-02  1344   0.153E-01 0.287E-01
DMP:  87    -0.122045590169E+04   -0.99645E-02   -0.10978E-01  1344   0.179E-01 0.327E-01
DMP:  88    -0.122046740659E+04   -0.11505E-01   -0.12982E-01  1344   0.219E-01 0.375E-01
DMP:  89    -0.122048080791E+04   -0.13401E-01   -0.15827E-01  1344   0.284E-01 0.427E-01
DMP:  90    -0.122049658981E+04   -0.15782E-01   -0.19983E-01  1344   0.392E-01 0.480E-01
DMP:  91    -0.122051558421E+04   -0.18994E-01   -0.25868E-01  1344   0.556E-01 0.537E-01
DMP:  92    -0.122053888335E+04   -0.23299E-01   -0.35230E-01  1344   0.838E-01 0.590E-01
DMP:  93    -0.122056714339E+04   -0.28260E-01   -0.53170E-01  1344   0.145E+00 0.559E-01
DMP:  94    -0.122060135620E+04   -0.34213E-01   -0.85781E-01  1344   0.270E+00 0.273E-01
DMP:  95    -0.122064457752E+04   -0.43221E-01   -0.13612E+00  1344   0.473E+00-0.338E-01
DMP:  96    -0.122070019555E+04   -0.55618E-01   -0.20605E+00  1344   0.758E+00-0.124E+00
DMP:  97    -0.122077583759E+04   -0.75642E-01   -0.28747E+00  1344   0.109E+01-0.226E+00
DMP:  98    -0.122088442642E+04   -0.10859E+00   -0.34677E+00  1344   0.132E+01-0.290E+00
DMP:  99    -0.122104294132E+04   -0.15851E+00   -0.34762E+00  1344   0.125E+01-0.158E+00
DMP: 100    -0.122123997638E+04   -0.19704E+00   -0.33945E+00  1344   0.108E+01 0.862E-01
DMP: 101    -0.122145550169E+04   -0.21553E+00   -0.32111E+00  1344   0.932E+00 0.242E+00
DMP: 102    -0.122167300874E+04   -0.21751E+00   -0.25144E+00  1344   0.644E+00 0.340E+00
DMP: 103    -0.122185933202E+04   -0.18632E+00   -0.17846E+00  1344   0.358E+00 0.415E+00
DMP: 104    -0.122199249767E+04   -0.13317E+00   -0.12780E+00  1344   0.237E+00 0.331E+00
DMP: 105    -0.122208718735E+04   -0.94690E-01   -0.81754E-01  1344   0.138E+00 0.235E+00
DMP: 106    -0.122214794045E+04   -0.60753E-01   -0.55807E-01  1344   0.963E-01 0.157E+00
DMP: 107    -0.122218945032E+04   -0.41510E-01   -0.39619E-01  1344   0.705E-01 0.108E+00
DMP: 108    -0.122222053619E+04   -0.31086E-01   -0.32018E-01  1344   0.567E-01 0.878E-01
DMP: 109    -0.122224723368E+04   -0.26697E-01   -0.28249E-01  1344   0.479E-01 0.812E-01
DMP: 110    -0.122227222546E+04   -0.24992E-01   -0.26628E-01  1344   0.430E-01 0.802E-01
DMP: 111    -0.122229667388E+04   -0.24448E-01   -0.25625E-01  1344   0.397E-01 0.802E-01
DMP: 112    -0.122232084767E+04   -0.24174E-01   -0.25105E-01  1344   0.379E-01 0.804E-01
DMP: 113    -0.122234506633E+04   -0.24219E-01   -0.24713E-01  1344   0.365E-01 0.805E-01
DMP: 114    -0.122236937565E+04   -0.24309E-01   -0.24306E-01  1344   0.355E-01 0.799E-01
DMP: 115    -0.122239353320E+04   -0.24158E-01   -0.23769E-01  1344   0.343E-01 0.787E-01
DMP: 116    -0.122241728205E+04   -0.23749E-01   -0.23046E-01  1344   0.330E-01 0.768E-01
DMP: 117    -0.122244034912E+04   -0.23067E-01   -0.22117E-01  1344   0.315E-01 0.741E-01
DMP: 118    -0.122246245807E+04   -0.22109E-01   -0.21020E-01  1344   0.298E-01 0.706E-01
DMP: 119    -0.122248343600E+04   -0.20978E-01   -0.19814E-01  1344   0.279E-01 0.669E-01
DMP: 120    -0.122250318372E+04   -0.19748E-01   -0.18524E-01  1344   0.259E-01 0.629E-01
DMP: 121    -0.122252159256E+04   -0.18409E-01   -0.17167E-01  1344   0.238E-01 0.586E-01
DMP: 122    -0.122253861074E+04   -0.17018E-01   -0.15783E-01  1344   0.218E-01 0.541E-01
DMP: 123    -0.122255419949E+04   -0.15589E-01   -0.14433E-01  1344   0.199E-01 0.495E-01
DMP: 124    -0.122256840536E+04   -0.14206E-01   -0.13143E-01  1344   0.182E-01 0.450E-01
DMP: 125    -0.122258128619E+04   -0.12881E-01   -0.11928E-01  1344   0.166E-01 0.407E-01
DMP: 126    -0.122259294859E+04   -0.11662E-01   -0.10776E-01  1344   0.149E-01 0.368E-01
DMP: 127    -0.122260345848E+04   -0.10510E-01   -0.97424E-02  1344   0.135E-01 0.332E-01
DMP: 128    -0.122261290229E+04   -0.94438E-02   -0.87870E-02  1344   0.123E-01 0.297E-01
DMP: 129    -0.122262133091E+04   -0.84286E-02   -0.79295E-02  1344   0.114E-01 0.264E-01
DMP: 130    -0.122262888527E+04   -0.75544E-02   -0.71336E-02  1344   0.103E-01 0.236E-01
DMP: 131    -0.122263565502E+04   -0.67697E-02   -0.64408E-02  1344   0.945E-02 0.211E-01
DMP: 132    -0.122264178042E+04   -0.61254E-02   -0.57781E-02  1344   0.840E-02 0.190E-01
DMP: 133    -0.122264726756E+04   -0.54871E-02   -0.52079E-02  1344   0.762E-02 0.171E-01
DMP: 134    -0.122265222996E+04   -0.49624E-02   -0.46523E-02  1344   0.674E-02 0.154E-01
DMP: 135    -0.122265668245E+04   -0.44525E-02   -0.41555E-02  1344   0.597E-02 0.138E-01
DMP: 136    -0.122266070080E+04   -0.40183E-02   -0.36949E-02  1344   0.518E-02 0.125E-01
DMP: 137    -0.122266430516E+04   -0.36044E-02   -0.33113E-02  1344   0.459E-02 0.113E-01
DMP: 138    -0.122266755454E+04   -0.32494E-02   -0.29726E-02  1344   0.409E-02 0.102E-01
DMP: 139    -0.122267048095E+04   -0.29264E-02   -0.26754E-02  1344   0.367E-02 0.921E-02
DMP: 140    -0.122267312378E+04   -0.26428E-02   -0.24068E-02  1344   0.328E-02 0.832E-02
DMP: 141    -0.122267550809E+04   -0.23843E-02   -0.21704E-02  1344   0.295E-02 0.751E-02
DMP: 142    -0.122267766214E+04   -0.21540E-02   -0.19586E-02  1344   0.266E-02 0.678E-02
DMP: 143    -0.122267960863E+04   -0.19465E-02   -0.17699E-02  1344   0.241E-02 0.612E-02
DMP: 144    -0.122268136956E+04   -0.17609E-02   -0.16018E-02  1344   0.219E-02 0.553E-02
DMP: 145    -0.122268296212E+04   -0.15926E-02   -0.14560E-02  1344   0.201E-02 0.499E-02
DMP: 146    -0.122268440334E+04   -0.14412E-02   -0.13315E-02  1344   0.188E-02 0.449E-02
DMP: 147    -0.122268570709E+04   -0.13038E-02   -0.12276E-02  1344   0.181E-02 0.400E-02
DMP: 148    -0.122268688934E+04   -0.11822E-02   -0.11309E-02  1344   0.174E-02 0.356E-02
DMP: 149    -0.122268796436E+04   -0.10750E-02   -0.10359E-02  1344   0.164E-02 0.318E-02
DMP: 150    -0.122268893980E+04   -0.97545E-03   -0.95895E-03  1344   0.157E-02 0.285E-02
DMP: 151    -0.122268982000E+04   -0.88019E-03   -0.90927E-03  1344   0.161E-02 0.249E-02
DMP: 152    -0.122269061907E+04   -0.79907E-03   -0.86285E-03  1344   0.166E-02 0.213E-02
DMP: 153    -0.122269134883E+04   -0.72975E-03   -0.80063E-03  1344   0.162E-02 0.183E-02
DMP: 154    -0.122269202333E+04   -0.67450E-03   -0.70110E-03  1344   0.138E-02 0.168E-02
DMP: 155    -0.122269264586E+04   -0.62254E-03   -0.59415E-03  1344   0.102E-02 0.168E-02
DMP: 156    -0.122269320423E+04   -0.55836E-03   -0.53725E-03  1344   0.867E-03 0.162E-02
DMP: 157    -0.122269371299E+04   -0.50876E-03   -0.50031E-03  1344   0.854E-03 0.143E-02
DMP: 158    -0.122269417528E+04   -0.46230E-03   -0.45850E-03  1344   0.806E-03 0.127E-02
DMP: 159    -0.122269459200E+04   -0.41671E-03   -0.42440E-03  1344   0.772E-03 0.113E-02
DMP: 160    -0.122269497088E+04   -0.37889E-03   -0.39087E-03  1344   0.725E-03 0.101E-02
DMP: 161    -0.122269531528E+04   -0.34440E-03   -0.37101E-03  1344   0.716E-03 0.914E-03
DMP: 162    -0.122269562484E+04   -0.30956E-03   -0.37000E-03  1344   0.800E-03 0.760E-03
DMP: 163    -0.122269590820E+04   -0.28335E-03   -0.36780E-03  1344   0.891E-03 0.588E-03
DMP: 164    -0.122269616808E+04   -0.25988E-03   -0.34499E-03  1344   0.893E-03 0.450E-03
DMP: 165    -0.122269641680E+04   -0.24872E-03   -0.28397E-03  1344   0.685E-03 0.458E-03
DMP: 166    -0.122269664699E+04   -0.23020E-03   -0.22636E-03  1344   0.446E-03 0.541E-03
DMP: 167    -0.122269685360E+04   -0.20661E-03   -0.19412E-03  1344   0.317E-03 0.578E-03
DMP: 168    -0.122269703849E+04   -0.18489E-03   -0.17426E-03  1344   0.271E-03 0.544E-03
DMP: 169    -0.122269720651E+04   -0.16802E-03   -0.15915E-03  1344   0.245E-03 0.500E-03
DMP: 170    -0.122269735995E+04   -0.15344E-03   -0.14388E-03  1344   0.219E-03 0.456E-03
DMP: 171    -0.122269749994E+04   -0.13999E-03   -0.13118E-03  1344   0.198E-03 0.420E-03
DMP: 172    -0.122269762717E+04   -0.12723E-03   -0.12074E-03  1344   0.186E-03 0.380E-03
DMP: 173    -0.122269774349E+04   -0.11631E-03   -0.11067E-03  1344   0.172E-03 0.345E-03
DMP: 174    -0.122269784979E+04   -0.10631E-03   -0.10096E-03  1344   0.158E-03 0.314E-03
DMP: 175    -0.122269794703E+04   -0.97235E-04   -0.91384E-04  1344   0.140E-03 0.288E-03
DMP: 176    -0.122269803576E+04   -0.88736E-04   -0.83483E-04  1344   0.127E-03 0.265E-03
DMP: 177    -0.122269811623E+04   -0.80469E-04   -0.78809E-04  1344   0.127E-03 0.238E-03
DMP: 178    -0.122269818890E+04   -0.72669E-04   -0.77551E-04  1344   0.143E-03 0.203E-03
DMP: 179    -0.122269825453E+04   -0.65626E-04   -0.78187E-04  1344   0.168E-03 0.162E-03
DMP: 180    -0.122269831497E+04   -0.60446E-04   -0.75275E-04  1344   0.179E-03 0.127E-03
DMP: 181    -0.122269837165E+04   -0.56673E-04   -0.67881E-04  1344   0.162E-03 0.113E-03
DMP: 182    -0.122269842245E+04   -0.50801E-04   -0.69237E-04  1344   0.174E-03 0.995E-04
DMP: 183    -0.122269846561E+04   -0.43164E-04   -0.81057E-04  1344   0.244E-03 0.453E-04
DMP: 184    -0.122269850429E+04   -0.38679E-04   -0.86696E-04  1344   0.302E-03-0.231E-04
DMP: 185    -0.122269854664E+04   -0.42344E-04   -0.67045E-04  1344   0.233E-03-0.164E-04
DMP: 186    -0.122269858772E+04   -0.41080E-04   -0.43701E-04  1344   0.122E-03 0.414E-04
DMP: 187    -0.122269862301E+04   -0.35296E-04   -0.36372E-04  1344   0.748E-04 0.815E-04
DMP: 188    -0.122269865112E+04   -0.28109E-04   -0.41769E-04  1344   0.106E-03 0.587E-04
DMP: 189    -0.122269867601E+04   -0.24890E-04   -0.47767E-04  1344   0.148E-03 0.199E-04
DMP: 190    -0.122269869927E+04   -0.23258E-04   -0.51754E-04  1344   0.178E-03-0.104E-04
DMP: 191    -0.122269872078E+04   -0.21511E-04   -0.52998E-04  1344   0.196E-03-0.347E-04
DMP: 192    -0.122269874147E+04   -0.20684E-04   -0.48726E-04  1344   0.187E-03-0.440E-04
DMP: 193    -0.122269876276E+04   -0.21298E-04   -0.37702E-04  1344   0.140E-03-0.251E-04
DMP: 194    -0.122269878227E+04   -0.19509E-04   -0.27033E-04  1344   0.901E-04 0.182E-07
DMP: 195    -0.122269880021E+04   -0.17942E-04   -0.19653E-04  1344   0.509E-04 0.257E-04
DMP: 196    -0.122269881486E+04   -0.14645E-04   -0.18224E-04  1344   0.445E-04 0.285E-04
DMP: 197    -0.122269882785E+04   -0.12993E-04   -0.17932E-04  1344   0.469E-04 0.227E-04
DMP: 198    -0.122269883973E+04   -0.11880E-04   -0.17058E-04  1344   0.475E-04 0.164E-04
DMP: 199    -0.122269885103E+04   -0.11301E-04   -0.14505E-04  1344   0.393E-04 0.158E-04
DMP: 200    -0.122269886159E+04   -0.10559E-04   -0.11775E-04  1344   0.281E-04 0.195E-04
DMP: 201    -0.122269887109E+04   -0.94988E-05   -0.99347E-05  1344   0.207E-04 0.218E-04
   1 F= -.12226989E+04 E0= -.12226989E+04  d E =-.122270E+04  mag=     2.0000
