 vasp.6.4.2 20Jul23 (build Oct 07 2023 16:32:06) gamma-only                     
  
 executed on             bridges2 date 2024.08.28  18:55:22
 running  768 mpi-ranks, on    6 nodes
 distrk:  each k-point on  384 cores,    2 groups
 distr:  one band on NCORE=   8 cores,   48 groups


--------------------------------------------------------------------------------------------------------


 INCAR:
   SYSTEM = zno
   PREC = Normal
   ISTART = 1
   ICHARG = 1
   ISPIN = 2
   MAGMOM = 76*0.0 1*0.0 2*0.0 1*0.0 11*0.0 1*0.0 78*0.0 1*0.0 2*0.0 1*0.0 11*0.0 1*0.0 4*0.0 1*2.0
   FERWE = 857*1 1*0 1*1 485*0
   FERDO = 855*1 1*1 1*0 487*0
   NCORE = 8
   KPAR = 2
   NELECT = 1714
   ENCUT = 400
   NELM = 1500
   NELMIN = 4
   EDIFF = 1E-05
   LREAL = Auto
   EDIFFG = +1E-02
   NSW = 40
   IBRION = 2
   ISIF = 2
   ISYM = 3
   POTIM = 0.5
   ISMEAR = -2
   SIGMA = 0.005
   NBANDS = 1344
   LWAVE = T
   LCHARG = T
   LVHAR = T
   LVTOT = F
   LELF = F
   LORBIT = 11
   ALGO = Damped
   TIME = 0.3
   LHFCALC = T
   HFSCREEN = 0.2
   AEXX = 0.375
   GGA = PE
   LDIAG = .FALSE.

 POTCAR:    PAW_PBE Zn 06Sep2000                  
 POTCAR:    PAW_PBE O 08Apr2002                   
 POTCAR:    PAW_PBE V 08Apr2002                   
 -----------------------------------------------------------------------------
|                                                                             |
|           W    W    AA    RRRRR   N    N  II  N    N   GGGG   !!!           |
|           W    W   A  A   R    R  NN   N  II  NN   N  G    G  !!!           |
|           W    W  A    A  R    R  N N  N  II  N N  N  G       !!!           |
|           W WW W  AAAAAA  RRRRR   N  N N  II  N  N N  G  GGG   !            |
|           WW  WW  A    A  R   R   N   NN  II  N   NN  G    G                |
|           W    W  A    A  R    R  N    N  II  N    N   GGGG   !!!           |
|                                                                             |
|     For optimal performance we recommend to set                             |
|       NCORE = 2 up to number-of-cores-per-socket                            |
|     NCORE specifies how many cores store one orbital (NPAR=cpu/NCORE).      |
|     This setting can greatly improve the performance of VASP for DFT.       |
|     The default, NCORE=1 might be grossly inefficient on modern             |
|     multi-core architectures or massively parallel machines. Do your        |
|     own testing! More info at https://www.vasp.at/wiki/index.php/NCORE      |
|     Unfortunately you need to use the default for GW and RPA                |
|     calculations (for HF NCORE is supported but not extensively tested      |
|     yet).                                                                   |
|                                                                             |
 -----------------------------------------------------------------------------

 POTCAR:    PAW_PBE Zn 06Sep2000                  
   SHA256 =  501fddbd8274dd8e9725d4f3de27861d7f1e553a7e18441bc79fed8f346e7f23 Zn/POTCAR             
   COPYR  = (c) Copyright 06Sep2000 Georg Kresse                                                    
   COPYR  = This file is part of the software VASP. Any use, copying, and all other rights are regul
   COPYR  = If you do not have a valid VASP license, you may not use, copy or distribute this file. 
   VRHFIN =Zn: d10 p2                                                                               
   LEXCH  = PE                                                                                      
   EATOM  =  1748.8345 eV,  128.5357 Ry                                                             
                                                                                                    
   TITEL  = PAW_PBE Zn 06Sep2000                                                                    
   LULTRA =        F    use ultrasoft PP ?                                                          
   IUNSCR =        1    unscreen: 0-lin 1-nonlin 2-no                                               
   RPACOR =    2.000    partial core radius                                                         
   POMASS =   65.390; ZVAL   =   12.000    mass and valenz                                          
   RCORE  =    2.300    outmost cutoff radius                                                       
   RWIGS  =    2.400; RWIGS  =    1.270    wigner-seitz radius (au A)                               
   ENMAX  =  276.723; ENMIN  =  207.542 eV                                                          
   RCLOC  =    1.828    cutoff for local pot                                                        
   LCOR   =        T    correct aug charges                                                         
   LPAW   =        T    paw PP                                                                      
   EAUG   =  575.892                                                                                
   DEXC   =    0.000                                                                                
   RMAX   =    2.347    core radius for proj-oper                                                   
   RAUG   =    1.300    factor for augmentation sphere                                              
   RDEP   =    2.324    radius for radial grids                                                     
   RDEPT  =    1.788    core radius for aug-charge                                                  
                                                                                                    
   Atomic configuration                                                                             
    9 entries                                                                                       
     n  l   j            E        occ.                                                              
     1  0  0.50     -9524.6913   2.0000                                                             
     2  0  0.50     -1158.1882   2.0000                                                             
     2  1  1.50     -1003.8506   6.0000                                                             
     3  0  0.50      -129.2194   2.0000                                                             
     3  1  1.50       -83.3890   6.0000                                                             
     3  2  2.50       -10.1410  10.0000                                                             
     4  0  0.50        -5.9785   2.0000                                                             
     4  1  0.50        -4.0817   0.0000                                                             
     4  3  2.50        -1.3606   0.0000                                                             
   Description                                                                                      
     l       E           TYP  RCUT    TYP  RCUT                                                     
     2    -10.1410010     23  2.300                                                                 
     2    -11.5015836     23  2.300                                                                 
     0     -5.9785163     23  2.300                                                                 
     0      1.1858015     23  2.300                                                                 
     1     -2.7211652     23  2.300                                                                 
     1     13.2444212     23  2.300                                                                 
  local pseudopotential read in
  partial core-charges read in
  partial kinetic energy density read in
  atomic valenz-charges read in
  non local Contribution for L=           2  read in
    real space projection operators read in
  non local Contribution for L=           2  read in
    real space projection operators read in
  non local Contribution for L=           0  read in
    real space projection operators read in
  non local Contribution for L=           0  read in
    real space projection operators read in
  non local Contribution for L=           1  read in
    real space projection operators read in
  non local Contribution for L=           1  read in
    real space projection operators read in
    PAW grid and wavefunctions read in
 
   number of l-projection  operators is LMAX  =           6
   number of lm-projection operators is LMMAX =          18
 
 POTCAR:    PAW_PBE O 08Apr2002                   
   SHA256 =  818f92134a0a090dccd8ba1447fa70422a3b330e708bb4f08108d8ae51209ddf O/POTCAR              
   COPYR  = (c) Copyright 08Apr2002 Georg Kresse                                                    
   COPYR  = This file is part of the software VASP. Any use, copying, and all other rights are regul
   COPYR  = If you do not have a valid VASP license, you may not use, copy or distribute this file. 
   VRHFIN =O: s2p4                                                                                  
   LEXCH  = PE                                                                                      
   EATOM  =   432.3788 eV,   31.7789 Ry                                                             
                                                                                                    
   TITEL  = PAW_PBE O 08Apr2002                                                                     
   LULTRA =        F    use ultrasoft PP ?                                                          
   IUNSCR =        1    unscreen: 0-lin 1-nonlin 2-no                                               
   RPACOR =    1.200    partial core radius                                                         
   POMASS =   16.000; ZVAL   =    6.000    mass and valenz                                          
   RCORE  =    1.520    outmost cutoff radius                                                       
   RWIGS  =    1.550; RWIGS  =    0.820    wigner-seitz radius (au A)                               
   ENMAX  =  400.000; ENMIN  =  300.000 eV                                                          
   ICORE  =        2    local potential                                                             
   LCOR   =        T    correct aug charges                                                         
   LPAW   =        T    paw PP                                                                      
   EAUG   =  605.392                                                                                
   DEXC   =    0.000                                                                                
   RMAX   =    1.553    core radius for proj-oper                                                   
   RAUG   =    1.300    factor for augmentation sphere                                              
   RDEP   =    1.550    radius for radial grids                                                     
   RDEPT  =    1.329    core radius for aug-charge                                                  
                                                                                                    
   Atomic configuration                                                                             
    4 entries                                                                                       
     n  l   j            E        occ.                                                              
     1  0  0.50      -514.6923   2.0000                                                             
     2  0  0.50       -23.9615   2.0000                                                             
     2  1  0.50        -9.0305   4.0000                                                             
     3  2  1.50        -9.5241   0.0000                                                             
   Description                                                                                      
     l       E           TYP  RCUT    TYP  RCUT                                                     
     0    -23.9615318     23  1.200                                                                 
     0     -9.5240782     23  1.200                                                                 
     1     -9.0304911     23  1.520                                                                 
     1      8.1634956     23  1.520                                                                 
     2     -9.5240782      7  1.500                                                                 
  local pseudopotential read in
  partial core-charges read in
  partial kinetic energy density read in
  kinetic energy density of atom read in
  atomic valenz-charges read in
  non local Contribution for L=           0  read in
    real space projection operators read in
  non local Contribution for L=           0  read in
    real space projection operators read in
  non local Contribution for L=           1  read in
    real space projection operators read in
  non local Contribution for L=           1  read in
    real space projection operators read in
    PAW grid and wavefunctions read in
 
   number of l-projection  operators is LMAX  =           4
   number of lm-projection operators is LMMAX =           8
 
 POTCAR:    PAW_PBE V 08Apr2002                   
   SHA256 =  ef546ef2c242197bded3fc1a147275a02051e3e940c74ac2c3352ea17412f79c V/POTCAR              
   COPYR  = (c) Copyright 08Apr2002 Georg Kresse                                                    
   COPYR  = This file is part of the software VASP. Any use, copying, and all other rights are regul
   COPYR  = If you do not have a valid VASP license, you may not use, copy or distribute this file. 
   VRHFIN =V: p6 d4 s1                                                                              
   LEXCH  = PE                                                                                      
   EATOM  =   170.8679 eV,   12.5584 Ry                                                             
                                                                                                    
   TITEL  = PAW_PBE V 08Apr2002                                                                     
   LULTRA =        F    use ultrasoft PP ?                                                          
   IUNSCR =        1    unscreen: 0-lin 1-nonlin 2-no                                               
   RPACOR =    2.000    partial core radius                                                         
   POMASS =   50.941; ZVAL   =    5.000    mass and valenz                                          
   RCORE  =    2.700    outmost cutoff radius                                                       
   RWIGS  =    2.500; RWIGS  =    1.323    wigner-seitz radius (au A)                               
   ENMAX  =  192.543; ENMIN  =  144.408 eV                                                          
   RCLOC  =    1.779    cutoff for local pot                                                        
   LCOR   =        T    correct aug charges                                                         
   LPAW   =        T    paw PP                                                                      
   EAUG   =  358.662                                                                                
   DEXC   =    0.000                                                                                
   RMAX   =    2.768    core radius for proj-oper                                                   
   RAUG   =    1.300    factor for augmentation sphere                                              
   RDEP   =    2.762    radius for radial grids                                                     
   RDEPT  =    2.240    core radius for aug-charge                                                  
                                                                                                    
   Atomic configuration                                                                             
    9 entries                                                                                       
     n  l   j            E        occ.                                                              
     1  0  0.50     -5360.7193   2.0000                                                             
     2  0  0.50      -598.4546   2.0000                                                             
     2  1  1.50      -499.0155   6.0000                                                             
     3  0  0.50       -66.5711   2.0000                                                             
     3  1  1.50       -40.5282   6.0000                                                             
     3  2  2.50        -2.4291   4.0000                                                             
     4  0  0.50        -3.8743   1.0000                                                             
     4  1  0.50        -2.7212   0.0000                                                             
     4  3  2.50        -1.3606   0.0000                                                             
   Description                                                                                      
     l       E           TYP  RCUT    TYP  RCUT                                                     
     2     -2.4290901     23  2.700                                                                 
     2     -3.7896727     23  2.700                                                                 
     0     -3.8742752     23  2.700                                                                 
     0     27.2116520     23  2.700                                                                 
     1     -2.7211652     23  2.700                                                                 
     1     27.2116520     23  2.700                                                                 
  local pseudopotential read in
  partial core-charges read in
  partial kinetic energy density read in
  atomic valenz-charges read in
  non local Contribution for L=           2  read in
    real space projection operators read in
  non local Contribution for L=           2  read in
    real space projection operators read in
  non local Contribution for L=           0  read in
    real space projection operators read in
  non local Contribution for L=           0  read in
    real space projection operators read in
  non local Contribution for L=           1  read in
    real space projection operators read in
  non local Contribution for L=           1  read in
    real space projection operators read in
    PAW grid and wavefunctions read in
 
   number of l-projection  operators is LMAX  =           6
   number of lm-projection operators is LMMAX =          18
 
 Optimization of the real space projectors (new method)

 maximal supplied QI-value         = 16.25
 optimisation between [QCUT,QGAM] = [ 10.24, 20.48] = [ 29.35,117.42] Ry 
 Optimized for a Real-space Cutoff    1.38 Angstroem

   l    n(q)    QCUT    max X(q) W(low)/X(q) W(high)/X(q)  e(spline) 
   2      7    10.239    46.356    0.21E-03    0.48E-03    0.10E-06
   2      7    10.239    41.843    0.21E-03    0.50E-03    0.10E-06
   0      8    10.239    48.958    0.37E-03    0.79E-04    0.11E-06
   0      8    10.239    32.776    0.35E-03    0.73E-04    0.10E-06
   1      8    10.239    17.787    0.49E-03    0.70E-03    0.14E-06
   1      8    10.239    14.435    0.42E-03    0.61E-03    0.13E-06
 Optimization of the real space projectors (new method)

 maximal supplied QI-value         = 24.76
 optimisation between [QCUT,QGAM] = [ 10.15, 20.30] = [ 28.85,115.39] Ry 
 Optimized for a Real-space Cutoff    1.38 Angstroem

   l    n(q)    QCUT    max X(q) W(low)/X(q) W(high)/X(q)  e(spline) 
   0      8    10.150    20.381    0.22E-03    0.32E-03    0.29E-06
   0      8    10.150    15.268    0.23E-03    0.35E-03    0.30E-06
   1      8    10.150     5.964    0.46E-03    0.53E-03    0.21E-06
   1      8    10.150     5.382    0.38E-03    0.45E-03    0.19E-06
 Optimization of the real space projectors (new method)

 maximal supplied QI-value         = 13.98
 optimisation between [QCUT,QGAM] = [ 10.21, 20.42] = [ 29.18,116.73] Ry 
 Optimized for a Real-space Cutoff    1.60 Angstroem

   l    n(q)    QCUT    max X(q) W(low)/X(q) W(high)/X(q)  e(spline) 
   2      9    10.208    96.114    0.38E-03    0.52E-03    0.25E-06
   2      9    10.208    88.986    0.38E-03    0.52E-03    0.26E-06
   0     10    10.208    20.919    0.14E-03    0.29E-04    0.23E-06
   0     10    10.208     9.593    0.11E-03    0.21E-04    0.17E-06
   1      9    10.208    11.615    0.18E-03    0.30E-03    0.12E-06
   1      9    10.208     7.031    0.12E-03    0.21E-03    0.96E-07
  PAW_PBE Zn 06Sep2000                  :
 energy of atom  1       EATOM=-1748.8345
 kinetic energy error for atom=    0.0107 (will be added to EATOM!!)
  PAW_PBE O 08Apr2002                   :
 energy of atom  2       EATOM= -432.3788
 kinetic energy error for atom=    0.1156 (will be added to EATOM!!)
  PAW_PBE V 08Apr2002                   :
 energy of atom  3       EATOM= -170.8679
 kinetic energy error for atom=    0.0010 (will be added to EATOM!!)
 
 
 POSCAR: Zn2 O2
  positions in direct lattice
  velocities in cartesian coordinates
 exchange correlation table for  LEXCH =        8
   RHO(1)=    0.500       N(1)  =     2000
   RHO(2)=  100.500       N(2)  =     4000
 


--------------------------------------------------------------------------------------------------------


 ion  position               nearest neighbor table
   1  0.167  0.083  0.166- 143 1.97 152 1.97 155 1.97  96 1.99
   2  0.167  0.083  0.500- 144 1.97  97 1.98 153 1.98 156 1.98
   3  0.167  0.083  0.833- 145 1.98 154 1.98 157 1.98  98 1.98
   4  0.166  0.333  0.166- 143 1.97 146 1.97 158 1.98  99 1.99
   5  0.166  0.333  0.500- 144 1.97 147 1.97 100 1.98 159 1.99
   6  0.167  0.333  0.834- 145 1.98 148 1.98 160 1.98 101 1.98
   7  0.167  0.583  0.166- 146 1.97 161 1.97 149 1.97 102 1.99
   8  0.167  0.583  0.500- 147 1.97 103 1.98 162 1.98 150 1.98
   9  0.167  0.583  0.833- 148 1.98 163 1.98 151 1.98 104 1.98
  10  0.167  0.833  0.166- 164 1.97 149 1.97 152 1.97 105 1.99
  11  0.167  0.834  0.500- 165 1.97 106 1.98 150 1.98 153 1.98
  12  0.167  0.833  0.834- 166 1.98 151 1.98 154 1.98 107 1.98
  13  0.417  0.083  0.166- 164 1.97 167 1.97 155 1.97 108 1.99
  14  0.416  0.083  0.500- 165 1.97 109 1.98 168 1.98 156 1.98
  15  0.417  0.083  0.834- 166 1.98 169 1.98 157 1.98 110 1.98
  16  0.416  0.333  0.167- 155 1.97 158 1.97 170 1.98 111 2.00
  17  0.413  0.331  0.502- 156 1.95 159 1.96 112 1.97 171 2.05
  18  0.418  0.334  0.833- 157 1.97 160 1.98 113 1.99 172 1.99
  19  0.416  0.583  0.166- 161 1.97 158 1.97 173 1.98 114 2.00
  20  0.413  0.582  0.502- 162 1.95 159 1.96 115 1.97 174 2.05
  21  0.418  0.584  0.833- 163 1.97 160 1.98 116 1.99 175 1.99
  22  0.417  0.833  0.166- 164 1.97 161 1.97 176 1.97 117 1.99
  23  0.416  0.834  0.500- 165 1.97 118 1.98 162 1.98 177 1.98
  24  0.417  0.833  0.834- 166 1.98 163 1.98 178 1.98 119 1.98
  25  0.667  0.083  0.166- 179 1.97 176 1.97 167 1.97 120 1.99
  26  0.667  0.083  0.500- 180 1.97 121 1.98 177 1.98 168 1.98
  27  0.667  0.083  0.833- 181 1.98 178 1.98 169 1.98 122 1.98
  28  0.667  0.333  0.166- 167 1.97 182 1.97 170 1.98 123 2.00
  29  0.668  0.331  0.502- 168 1.95 183 1.96 124 1.97 171 2.05
  30  0.666  0.334  0.833- 169 1.97 184 1.98 125 1.99 172 1.99
  31  0.667  0.583  0.167- 170 1.97 185 1.97 173 1.97 126 2.03
  32  0.667  0.583  0.835- 127 1.97 172 1.98 187 1.98 175 1.98
  33  0.667  0.834  0.166- 176 1.97 188 1.97 173 1.98 128 2.00
  34  0.668  0.837  0.502- 177 1.95 189 1.96 129 1.97 174 2.05
  35  0.666  0.832  0.833- 178 1.97 190 1.98 130 1.99 175 1.99
  36  0.917  0.084  0.166- 143 1.97 179 1.97 188 1.98 131 1.99
  37  0.917  0.084  0.500- 144 1.97 180 1.97 132 1.98 189 1.99
  38  0.917  0.083  0.834- 145 1.98 181 1.98 190 1.98 133 1.98
  39  0.917  0.333  0.166- 179 1.97 146 1.97 182 1.98 134 1.99
  40  0.917  0.333  0.500- 180 1.97 147 1.97 135 1.98 183 1.99
  41  0.917  0.333  0.834- 181 1.98 148 1.98 184 1.98 136 1.98
  42  0.917  0.583  0.166- 149 1.97 182 1.97 185 1.98 137 2.00
  43  0.919  0.582  0.502- 150 1.95 183 1.96 138 1.97 186 2.05
  44  0.916  0.584  0.833- 151 1.97 184 1.98 139 1.99 187 1.99
  45  0.917  0.834  0.167- 152 1.97 188 1.97 185 1.98 140 2.00
  46  0.919  0.837  0.502- 153 1.95 189 1.96 141 1.97 186 2.05
  47  0.916  0.832  0.833- 154 1.97 190 1.98 142 1.99 187 1.99
  48  0.083  0.167  1.000- 101 1.97 133 1.97  98 1.97 143 1.99
  49  0.083  0.167  0.333-  99 1.97 131 1.97  96 1.97 144 1.99
  50  0.083  0.167  0.667- 145 1.98  97 1.98 100 1.98 132 1.98
  51  0.083  0.417  1.000- 104 1.97 136 1.97 101 1.97 146 1.99
  52  0.083  0.417  0.333- 134 1.97  99 1.97 102 1.97 147 1.99
  53  0.083  0.417  0.667- 148 1.98 103 1.98 135 1.98 100 1.98
  54  0.083  0.667  1.000- 107 1.97 104 1.97 139 1.98 149 1.99
  55  0.084  0.667  0.333- 102 1.97 105 1.97 137 1.98 150 1.99
  56  0.082  0.667  0.667- 106 1.98 151 1.98 103 1.99 138 2.00
  57  0.083  0.917  1.000- 107 1.97  98 1.97 142 1.98 152 1.99
  58  0.084  0.917  0.333-  96 1.97 105 1.97 140 1.98 153 1.99
  59  0.082  0.916  0.667- 106 1.98 154 1.98  97 1.99 141 2.00
  60  0.333  0.167  1.000- 110 1.97  98 1.97 113 1.98 155 1.99
  61  0.333  0.166  0.333-  96 1.97 108 1.97 111 1.98 156 1.99
  62  0.334  0.168  0.667- 109 1.98 157 1.98  97 1.99 112 2.00
  63  0.333  0.417  1.000- 101 1.97 116 1.98 113 1.98 158 1.99
  64  0.332  0.416  0.333-  99 1.96 114 1.97 111 1.97 159 1.99
  65  0.334  0.417  0.668- 160 1.97 100 1.97 115 1.99 112 1.99
  66  0.333  0.667  1.000- 119 1.97 104 1.97 116 1.98 161 1.99
  67  0.333  0.667  0.333- 102 1.97 117 1.97 114 1.98 162 1.99
  68  0.334  0.667  0.667- 118 1.98 163 1.98 103 1.99 115 2.00
  69  0.333  0.917  1.000- 110 1.97 107 1.97 119 1.97 164 1.99
  70  0.333  0.917  0.333- 108 1.97 105 1.97 117 1.97 165 1.99
  71  0.333  0.917  0.667- 166 1.98 109 1.98 106 1.98 118 1.98
  72  0.583  0.167  1.000- 110 1.97 122 1.97 125 1.98 167 1.99
  73  0.583  0.166  0.333- 120 1.97 108 1.97 123 1.98 168 1.99
  74  0.583  0.168  0.667- 109 1.98 169 1.98 121 1.99 124 2.00
  75  0.583  0.416  0.001- 113 1.97 125 1.97 127 1.98 170 1.99
  76  0.582  0.415  0.330- 111 1.95 123 1.95 126 1.97 171 2.07
  77  0.589  0.427  0.665- 172 1.98 112 1.98 124 1.98  92 3.04  80 3.04
  78  0.583  0.667  0.001- 130 1.97 116 1.97 127 1.98 173 1.99
  79  0.582  0.668  0.330- 128 1.95 114 1.95 126 1.97 174 2.07
  80  0.589  0.661  0.665- 175 1.98 129 1.98 115 1.98  77 3.04  92 3.04
  81  0.583  0.917  1.000- 119 1.97 122 1.97 130 1.98 176 1.99
  82  0.583  0.917  0.333- 120 1.97 117 1.97 128 1.98 177 1.99
  83  0.583  0.916  0.667- 118 1.98 178 1.98 121 1.99 129 2.00
  84  0.833  0.167  1.000- 122 1.97 136 1.97 133 1.97 179 1.99
  85  0.833  0.167  0.333- 134 1.97 131 1.97 120 1.97 180 1.99
  86  0.833  0.167  0.667- 181 1.98 121 1.98 135 1.98 132 1.98
  87  0.833  0.417  1.000- 136 1.97 139 1.98 125 1.98 182 1.99
  88  0.834  0.416  0.333- 134 1.96 137 1.97 123 1.97 183 1.99
  89  0.833  0.417  0.668- 184 1.97 135 1.97 138 1.99 124 1.99
  90  0.834  0.667  0.001- 142 1.97 139 1.97 127 1.98 185 1.99
  91  0.835  0.668  0.330- 140 1.95 137 1.95 126 1.97 186 2.07
  92  0.823  0.661  0.665- 187 1.98 141 1.98 138 1.98  77 3.04  80 3.04
  93  0.833  0.917  1.000- 133 1.97 130 1.98 142 1.98 188 1.99
  94  0.834  0.918  0.333- 131 1.96 128 1.97 140 1.97 189 1.99
  95  0.833  0.916  0.668- 190 1.97 132 1.97 129 1.99 141 1.99
  96  0.167  0.083  0.294-  58 1.97  61 1.97  49 1.97   1 1.99
  97  0.167  0.083  0.627-   2 1.98  50 1.98  59 1.99  62 1.99
  98  0.167  0.083  0.960-  57 1.97  60 1.97  48 1.97   3 1.98
  99  0.167  0.333  0.294-  64 1.96  49 1.97  52 1.97   4 1.99
 100  0.168  0.334  0.627-  65 1.97   5 1.98  50 1.98  53 1.98
 101  0.167  0.333  0.961-  63 1.97  48 1.97  51 1.97   6 1.98
 102  0.167  0.583  0.294-  67 1.97  55 1.97  52 1.97   7 1.99
 103  0.167  0.584  0.627-  53 1.98   8 1.98  68 1.99  56 1.99
 104  0.167  0.583  0.960-  66 1.97  54 1.97  51 1.97   9 1.98
 105  0.167  0.833  0.294-  55 1.97  58 1.97  70 1.97  10 1.99
 106  0.166  0.833  0.627-  56 1.98  59 1.98  11 1.98  71 1.98
 107  0.167  0.833  0.961-  54 1.97  57 1.97  69 1.97  12 1.98
 108  0.417  0.083  0.294-  73 1.97  61 1.97  70 1.97  13 1.99
 109  0.417  0.084  0.627-  74 1.98  62 1.98  14 1.98  71 1.98
 110  0.417  0.083  0.961-  72 1.97  60 1.97  69 1.97  15 1.98
 111  0.417  0.333  0.295-  76 1.95  64 1.97  61 1.98  16 2.00
 112  0.421  0.337  0.627-  17 1.97  77 1.98  65 1.99  62 2.00
 113  0.417  0.334  0.960-  75 1.97  63 1.98  60 1.98  18 1.99
 114  0.417  0.583  0.295-  79 1.95  64 1.97  67 1.98  19 2.00
 115  0.420  0.584  0.627-  20 1.97  80 1.98  65 1.99  68 2.00
 116  0.417  0.584  0.960-  78 1.97  63 1.98  66 1.98  21 1.99
 117  0.417  0.833  0.294-  67 1.97  82 1.97  70 1.97  22 1.99
 118  0.417  0.833  0.627-  68 1.98  83 1.98  23 1.98  71 1.98
 119  0.417  0.833  0.961-  66 1.97  81 1.97  69 1.97  24 1.98
 120  0.667  0.083  0.294-  82 1.97  73 1.97  85 1.97  25 1.99
 121  0.666  0.083  0.627-  86 1.98  26 1.98  83 1.99  74 1.99
 122  0.667  0.083  0.960-  81 1.97  72 1.97  84 1.97  27 1.98
 123  0.667  0.333  0.295-  76 1.95  88 1.97  73 1.98  28 2.00
 124  0.666  0.336  0.627-  29 1.97  77 1.98  89 1.99  74 2.00
 125  0.666  0.334  0.960-  75 1.97  87 1.98  72 1.98  30 1.99
 126  0.667  0.583  0.297-  76 1.97  91 1.97  79 1.97  31 2.03
 127  0.667  0.583  0.961-  32 1.97  75 1.98  90 1.98  78 1.98
 128  0.667  0.833  0.295-  79 1.95  94 1.97  82 1.98  33 2.00
 129  0.666  0.830  0.627-  34 1.97  80 1.98  95 1.99  83 2.00
 130  0.666  0.833  0.960-  78 1.97  93 1.98  81 1.98  35 1.99
 131  0.917  0.083  0.294-  94 1.96  49 1.97  85 1.97  36 1.99
 132  0.916  0.082  0.627-  95 1.97  37 1.98  50 1.98  86 1.98
 133  0.917  0.083  0.961-  93 1.97  48 1.97  84 1.97  38 1.98
 134  0.917  0.333  0.294-  88 1.96  85 1.97  52 1.97  39 1.99
 135  0.916  0.334  0.627-  89 1.97  40 1.98  86 1.98  53 1.98
 136  0.917  0.333  0.961-  87 1.97  84 1.97  51 1.97  41 1.98
 137  0.917  0.583  0.295-  91 1.95  88 1.97  55 1.98  42 2.00
 138  0.914  0.584  0.627-  43 1.97  92 1.98  89 1.99  56 2.00
 139  0.916  0.584  0.960-  90 1.97  87 1.98  54 1.98  44 1.99
 140  0.917  0.833  0.295-  91 1.95  94 1.97  58 1.98  45 2.00
 141  0.913  0.829  0.627-  46 1.97  92 1.98  95 1.99  59 2.00
 142  0.916  0.833  0.960-  90 1.97  93 1.98  57 1.98  47 1.99
 143  0.083  0.167  0.127-   4 1.97  36 1.97   1 1.97  48 1.99
 144  0.084  0.166  0.460-   2 1.97   5 1.97  37 1.97  49 1.99
 145  0.083  0.167  0.794-   3 1.98   6 1.98  38 1.98  50 1.98
 146  0.083  0.417  0.127-   7 1.97  39 1.97   4 1.97  51 1.99
 147  0.084  0.417  0.460-   8 1.97  40 1.97   5 1.97  52 1.99
 148  0.083  0.417  0.794-   9 1.98  41 1.98   6 1.98  53 1.98
 149  0.083  0.667  0.127-  42 1.97   7 1.97  10 1.97  54 1.99
 150  0.083  0.667  0.460-  43 1.95  11 1.98   8 1.98  55 1.99
 151  0.083  0.667  0.794-  44 1.97  56 1.98  12 1.98   9 1.98
 152  0.083  0.917  0.127-  45 1.97   1 1.97  10 1.97  57 1.99
 153  0.083  0.916  0.460-  46 1.95  11 1.98   2 1.98  58 1.99
 154  0.083  0.916  0.794-  47 1.97  59 1.98  12 1.98   3 1.98
 155  0.333  0.167  0.127-  16 1.97   1 1.97  13 1.97  60 1.99
 156  0.334  0.167  0.460-  17 1.95  14 1.98   2 1.98  61 1.99
 157  0.334  0.167  0.794-  18 1.97  62 1.98  15 1.98   3 1.98
 158  0.333  0.417  0.127-  19 1.97  16 1.97   4 1.98  63 1.99
 159  0.334  0.417  0.461-  20 1.96  17 1.96   5 1.99  64 1.99
 160  0.334  0.417  0.794-  65 1.97  21 1.98  18 1.98   6 1.98
 161  0.333  0.667  0.127-  19 1.97   7 1.97  22 1.97  66 1.99
 162  0.334  0.667  0.460-  20 1.95  23 1.98   8 1.98  67 1.99
 163  0.334  0.667  0.794-  21 1.97  68 1.98  24 1.98   9 1.98
 164  0.333  0.917  0.127-  13 1.97  10 1.97  22 1.97  69 1.99
 165  0.333  0.917  0.460-  14 1.97  11 1.97  23 1.97  70 1.99
 166  0.333  0.917  0.794-  15 1.98  12 1.98  24 1.98  71 1.98
 167  0.583  0.167  0.127-  28 1.97  25 1.97  13 1.97  72 1.99
 168  0.583  0.167  0.460-  29 1.95  14 1.98  26 1.98  73 1.99
 169  0.583  0.167  0.794-  30 1.97  74 1.98  15 1.98  27 1.98
 170  0.583  0.417  0.129-  31 1.97  16 1.98  28 1.98  75 1.99
 171  0.587  0.423  0.463- 191 1.87  29 2.05  17 2.05  76 2.07
 172  0.584  0.419  0.791-  77 1.98  32 1.98  30 1.99  18 1.99
 173  0.583  0.667  0.129-  31 1.97  33 1.98  19 1.98  78 1.99
 174  0.586  0.664  0.463- 191 1.87  34 2.05  20 2.05  79 2.07
 175  0.584  0.666  0.791-  80 1.98  32 1.98  35 1.99  21 1.99
 176  0.583  0.917  0.127-  33 1.97  25 1.97  22 1.97  81 1.99
 177  0.583  0.916  0.460-  34 1.95  23 1.98  26 1.98  82 1.99
 178  0.583  0.916  0.794-  35 1.97  83 1.98  24 1.98  27 1.98
 179  0.833  0.167  0.127-  25 1.97  39 1.97  36 1.97  84 1.99
 180  0.833  0.166  0.460-  26 1.97  40 1.97  37 1.97  85 1.99
 181  0.833  0.167  0.794-  27 1.98  41 1.98  38 1.98  86 1.98
 182  0.833  0.417  0.127-  42 1.97  28 1.97  39 1.98  87 1.99
 183  0.833  0.417  0.460-  43 1.96  29 1.96  40 1.99  88 1.99
 184  0.833  0.417  0.794-  89 1.97  44 1.98  30 1.98  41 1.98
 185  0.833  0.667  0.129-  31 1.97  45 1.98  42 1.98  90 1.99
 186  0.827  0.663  0.463- 191 1.87  43 2.05  46 2.05  91 2.07
 187  0.831  0.666  0.791-  92 1.98  32 1.98  44 1.99  47 1.99
 188  0.833  0.917  0.127-  33 1.97  45 1.97  36 1.98  93 1.99
 189  0.833  0.916  0.461-  34 1.96  46 1.96  37 1.99  94 1.99
 190  0.833  0.916  0.794-  95 1.97  35 1.98  47 1.98  38 1.98
 191  0.667  0.583  0.495- 174 1.87 171 1.87 186 1.87
 
  LATTYP: Found a hexagonal cell.
 ALAT       =    12.9943542480
 C/A-ratio  =     1.2014478222
  
  Lattice vectors:
  
 A1 = (  12.9943542480,   0.0000000000,   0.0000000000)
 A2 = (  -6.4971766472,  11.2534400587,   0.0000000000)
 A3 = (   0.0000000000,   0.0000000000,  15.6120386124)


Analysis of symmetry for initial positions (statically):
=====================================================================
 Subroutine PRICEL returns:
 Original cell was already a primitive cell.
 

 Routine SETGRP: Setting up the symmetry group for a 
 hexagonal supercell.


 Subroutine GETGRP returns: Found  2 space group operations
 (whereof  1 operations were pure point group operations)
 out of a pool of 24 trial point group operations.


The static configuration has the point symmetry C_1 .
 The point group associated with its full space group is C_1h.


Analysis of symmetry for dynamics (positions and initial velocities):
=====================================================================
 Subroutine PRICEL returns:
 Original cell was already a primitive cell.
 

 Routine SETGRP: Setting up the symmetry group for a 
 hexagonal supercell.


 Subroutine GETGRP returns: Found  2 space group operations
 (whereof  1 operations were pure point group operations)
 out of a pool of 24 trial point group operations.


The dynamic configuration has the point symmetry C_1 .
 The point group associated with its full space group is C_1h.


Analysis of structural, dynamic, and magnetic symmetry:
=====================================================================
 Subroutine PRICEL returns:
 Original cell was already a primitive cell.
 

 Routine SETGRP: Setting up the symmetry group for a 
 hexagonal supercell.


 Subroutine GETGRP returns: Found  2 space group operations
 (whereof  1 operations were pure point group operations)
 out of a pool of 24 trial point group operations.


The overall configuration has the point symmetry C_1 .
 The point group associated with its full space group is C_1h.


 Subroutine INISYM returns: Found  2 space group operations
 (whereof  1 operations are pure point group operations),
 and found     1 'primitive' translations


----------------------------------------------------------------------------------------

                                     Primitive cell                                     

  volume of cell :    2282.9669

  direct lattice vectors                    reciprocal lattice vectors
    12.994354248  0.000000000  0.000000000     0.076956498  0.044430855  0.000000000
    -6.497176647 11.253440059  0.000000000     0.000000000  0.088861716  0.000000000
     0.000000000  0.000000000 15.612038612     0.000000000  0.000000000  0.064053134

  length of vectors
    12.994354248 12.994353294 15.612038612     0.088861710  0.088861716  0.064053134

  position of ions in fractional coordinates (direct lattice)
     0.166639073  0.083360919  0.166210807
     0.166731504  0.083268488  0.500289290
     0.166681039  0.083318953  0.833386367
     0.166400263  0.333191391  0.166303834
     0.166166494  0.333075705  0.500076193
     0.166609707  0.333296899  0.833614491
     0.166632891  0.583265231  0.166212234
     0.166737652  0.583462573  0.500291156
     0.166672902  0.583351226  0.833406348
     0.166758557  0.833379222  0.166165600
     0.167293361  0.833644606  0.500339765
     0.166696336  0.833351698  0.833540786
     0.416620778  0.083241435  0.166165600
     0.416355394  0.082706631  0.500339765
     0.416648302  0.083303656  0.833540786
     0.415909928  0.332865194  0.166503761
     0.412853917  0.330993881  0.501507902
     0.417629303  0.333869626  0.833140076
     0.415899480  0.583049561  0.166499383
     0.412764216  0.581878041  0.501510774
     0.417589100  0.583774330  0.833151447
     0.416607548  0.833392452  0.166156913
     0.416322616  0.833677384  0.500348060
     0.416621310  0.833378690  0.833552518
     0.666734769  0.083367101  0.166212234
     0.666537427  0.083262340  0.500291156
     0.666648774  0.083327090  0.833406348
     0.666965940  0.332861210  0.166495128
     0.668208528  0.330932055  0.501514325
     0.666261370  0.333845308  0.833148244
     0.666662252  0.583337748  0.167084375
     0.666654353  0.583345647  0.835298027
     0.666950439  0.834100520  0.166499383
     0.668121959  0.837235784  0.501510774
     0.666225670  0.832410900  0.833151447
     0.916808609  0.083599729  0.166303834
     0.916924295  0.083833498  0.500076193
     0.916703101  0.083390285  0.833614491
     0.916814220  0.333185780  0.166300556
     0.916959569  0.333040431  0.500079247
     0.916723214  0.333276786  0.833633447
     0.917138790  0.583034060  0.166495128
     0.919067945  0.581791472  0.501514325
     0.916154692  0.583738630  0.833148244
     0.917134806  0.834090072  0.166503761
     0.919006119  0.837146083  0.501507902
     0.916130374  0.832370697  0.833140076
     0.083347585  0.166652407  0.999982069
     0.083293434  0.166706558  0.333032951
     0.083388991  0.166611001  0.666943716
     0.083354243  0.416683916  0.999991962
     0.083301323  0.416586900  0.333036550
     0.083444160  0.416824471  0.666951448
     0.083248061  0.666608181  0.999816681
     0.084270445  0.667045207  0.332792806
     0.082339055  0.666717477  0.667237785
     0.083236893  0.916634429  0.999810306
     0.084262759  0.917224034  0.332802131
     0.082275013  0.915603705  0.667220742
     0.333365571  0.166763099  0.999810306
     0.332775966  0.165737233  0.332802131
     0.334396295  0.167724979  0.667220742
     0.333441206  0.416724561  0.999814693
     0.332357721  0.416188117  0.332979106
     0.333509650  0.416805360  0.667839966
     0.333355766  0.666613808  0.999817904
     0.332774710  0.667064775  0.332789676
     0.334387830  0.666772731  0.667243844
     0.333322920  0.916677080  0.999930155
     0.333323461  0.916676539  0.332679137
     0.333298981  0.916701019  0.666954033
     0.583391819  0.166751931  0.999816681
     0.582954793  0.165729547  0.332792806
     0.583282523  0.167660937  0.667237785
     0.583224075  0.416434097  0.000965909
     0.582351448  0.414663370  0.330441713
     0.588730108  0.427311100  0.665048648
     0.583213899  0.666786101  0.000969856
     0.582320546  0.667679454  0.330445175
     0.588628113  0.661371887  0.665063692
     0.583386192  0.916644234  0.999817904
     0.582935225  0.917225290  0.332789676
     0.583227269  0.915612170  0.667243844
     0.833316084  0.166645749  0.999991962
     0.833413100  0.166698669  0.333036550
     0.833175529  0.166555832  0.666951448
     0.833289788  0.416710212  0.999816435
     0.833839744  0.416160256  0.332968201
     0.833330348  0.416669652  0.667863568
     0.833565903  0.666775925  0.000965909
     0.835336630  0.667648552  0.330441713
     0.822688900  0.661269892  0.665048648
     0.833275439  0.916558794  0.999814693
     0.833811883  0.917642279  0.332979106
     0.833194640  0.916490350  0.667839966
     0.166620803  0.083379189  0.293771203
     0.166954817  0.083045175  0.627153569
     0.166686175  0.083313817  0.960463633
     0.166642933  0.333310561  0.293826699
     0.167518984  0.333756035  0.626954525
     0.166809308  0.333393180  0.960615620
     0.166612841  0.583222415  0.293767381
     0.166981473  0.583928709  0.627149092
     0.166679923  0.583350640  0.960476562
     0.166580812  0.833290493  0.293698327
     0.166236374  0.833127785  0.627006648
     0.166595866  0.833294061  0.960550428
     0.416709507  0.083419180  0.293698327
     0.416872215  0.083763618  0.627006648
     0.416705939  0.083404126  0.960550428
     0.416683326  0.333346659  0.294655156
     0.420520093  0.336507574  0.627383523
     0.417299759  0.333721797  0.960297793
     0.416670495  0.583337426  0.294653014
     0.420454648  0.584103876  0.627386934
     0.417288034  0.583583352  0.960308623
     0.416697024  0.833302976  0.293689423
     0.416830092  0.833169908  0.627005476
     0.416694112  0.833305888  0.960557885
     0.666777585  0.083387151  0.293767381
     0.666071291  0.083018519  0.627149092
     0.666649360  0.083320069  0.960476562
     0.666686885  0.333335421  0.294643117
     0.666070726  0.336398366  0.627391389
     0.666437944  0.333704518  0.960309807
     0.666661142  0.583338858  0.297036619
     0.666667207  0.583332793  0.961495749
     0.666662574  0.833329505  0.294653014
     0.665896124  0.829545352  0.627386934
     0.666416648  0.832711966  0.960308623
     0.916689439  0.083357059  0.293826699
     0.916243965  0.082481008  0.626954525
     0.916606820  0.083190684  0.960615620
     0.916701103  0.333298897  0.293821149
     0.916315603  0.333684397  0.626954385
     0.916615211  0.333384789  0.960628654
     0.916664579  0.583313115  0.294643117
     0.913601634  0.583929274  0.627391389
     0.916295482  0.583562056  0.960309807
     0.916653341  0.833316674  0.294655156
     0.913492426  0.829479907  0.627383523
     0.916278203  0.832700241  0.960297793
     0.083346162  0.166653830  0.127265774
     0.083505144  0.166494848  0.460400896
     0.083321836  0.166678156  0.793674156
     0.083352827  0.416692756  0.127271118
     0.083537388  0.417027983  0.460401788
     0.083336575  0.416656106  0.793677959
     0.083198924  0.666591194  0.127260553
     0.082670271  0.666770354  0.460352280
     0.082854863  0.666516661  0.793787514
     0.083191526  0.916612230  0.127257076
     0.082625246  0.915880744  0.460365108
     0.082830502  0.916333930  0.793775143
     0.333387770  0.166808466  0.127257076
     0.334119256  0.167374746  0.460365108
     0.333666070  0.167169490  0.793775143
     0.333423949  0.416719308  0.127410645
     0.334308472  0.417173928  0.460509278
     0.333610256  0.416825344  0.794081177
     0.333381904  0.666599354  0.127260581
     0.334091315  0.666816279  0.460344334
     0.333648753  0.666545582  0.793793059
     0.333320487  0.916679513  0.127221383
     0.333307029  0.916692971  0.460035246
     0.333311470  0.916688530  0.793734099
     0.583408806  0.166801068  0.127260553
     0.583229646  0.167329721  0.460352280
     0.583483339  0.167145129  0.793787514
     0.583425561  0.416851705  0.128665664
     0.586549869  0.422917150  0.462789138
     0.584315877  0.418573179  0.791482443
     0.583414659  0.666585341  0.128667312
     0.586413183  0.663586817  0.462854458
     0.584254576  0.665745424  0.791491885
     0.583400646  0.916618096  0.127260581
     0.583183721  0.915908685  0.460344334
     0.583454418  0.916351247  0.793793059
     0.833307244  0.166647165  0.127271118
     0.832972017  0.166462604  0.460401788
     0.833343894  0.166663417  0.793677959
     0.833295453  0.416704547  0.127410790
     0.832904192  0.417095808  0.460492079
     0.833221715  0.416778285  0.794101441
     0.833148295  0.666574439  0.128665664
     0.827082850  0.663450131  0.462789138
     0.831426821  0.665684123  0.791482443
     0.833280692  0.916576051  0.127410645
     0.832826072  0.915691528  0.460509278
     0.833174656  0.916389744  0.794081177
     0.666631095  0.583368905  0.495110741

  ion indices of the primitive-cell ions
   primitive index   ion index
                 1           1
                 2           2
                 3           3
                 4           4
                 5           5
                 6           6
                 7           7
                 8           8
                 9           9
                10          10
                11          11
                12          12
                13          13
                14          14
                15          15
                16          16
                17          17
                18          18
                19          19
                20          20
                21          21
                22          22
                23          23
                24          24
                25          25
                26          26
                27          27
                28          28
                29          29
                30          30
                31          31
                32          32
                33          33
                34          34
                35          35
                36          36
                37          37
                38          38
                39          39
                40          40
                41          41
                42          42
                43          43
                44          44
                45          45
                46          46
                47          47
                48          48
                49          49
                50          50
                51          51
                52          52
                53          53
                54          54
                55          55
                56          56
                57          57
                58          58
                59          59
                60          60
                61          61
                62          62
                63          63
                64          64
                65          65
                66          66
                67          67
                68          68
                69          69
                70          70
                71          71
                72          72
                73          73
                74          74
                75          75
                76          76
                77          77
                78          78
                79          79
                80          80
                81          81
                82          82
                83          83
                84          84
                85          85
                86          86
                87          87
                88          88
                89          89
                90          90
                91          91
                92          92
                93          93
                94          94
                95          95
                96          96
                97          97
                98          98
                99          99
               100         100
               101         101
               102         102
               103         103
               104         104
               105         105
               106         106
               107         107
               108         108
               109         109
               110         110
               111         111
               112         112
               113         113
               114         114
               115         115
               116         116
               117         117
               118         118
               119         119
               120         120
               121         121
               122         122
               123         123
               124         124
               125         125
               126         126
               127         127
               128         128
               129         129
               130         130
               131         131
               132         132
               133         133
               134         134
               135         135
               136         136
               137         137
               138         138
               139         139
               140         140
               141         141
               142         142
               143         143
               144         144
               145         145
               146         146
               147         147
               148         148
               149         149
               150         150
               151         151
               152         152
               153         153
               154         154
               155         155
               156         156
               157         157
               158         158
               159         159
               160         160
               161         161
               162         162
               163         163
               164         164
               165         165
               166         166
               167         167
               168         168
               169         169
               170         170
               171         171
               172         172
               173         173
               174         174
               175         175
               176         176
               177         177
               178         178
               179         179
               180         180
               181         181
               182         182
               183         183
               184         184
               185         185
               186         186
               187         187
               188         188
               189         189
               190         190
               191         191

----------------------------------------------------------------------------------------

 
 
 KPOINTS: pymatgen with grid density = 659 / numbe

Automatic generation of k-mesh.
 Grid dimensions read from file:
 generate k-points for:    1    1    1

 Generating k-lattice:

  Cartesian coordinates                     Fractional coordinates (reciprocal lattice)
     0.076956498  0.044430855  0.000000000     1.000000000  0.000000000  0.000000000
     0.000000000  0.088861716  0.000000000     0.000000000  1.000000000  0.000000000
     0.000000000  0.000000000  0.064053134     0.000000000  0.000000000  1.000000000

  Length of vectors
     0.088861710  0.088861716  0.064053134

  Shift w.r.t. Gamma in fractional coordinates (k-lattice)
     0.000000000  0.000000000  0.000000000

 
 Subroutine IBZKPT returns following result:
 ===========================================
 
 Found      1 irreducible k-points:
 
 Following reciprocal coordinates:
            Coordinates               Weight
  0.000000  0.000000  0.000000      1.000000
 
 Following cartesian coordinates:
            Coordinates               Weight
  0.000000  0.000000  0.000000      1.000000
 
 
 Subroutine IBZKPT_HF returns following result:
 ==============================================
 
 Found      1 k-points in 1st BZ
 the following      1 k-points will be used (e.g. in the exchange kernel)
 Following reciprocal coordinates:   # in IRBZ
  0.000000  0.000000  0.000000    1.00000000   1 t-inv F


--------------------------------------------------------------------------------------------------------




 Dimension of arrays:
   k-points           NKPTS =      1   k-points in BZ     NKDIM =      1   number of bands    NBANDS=   1344
   number of dos      NEDOS =    301   number of ions     NIONS =    191
   non local maximal  LDIM  =      6   non local SUM 2l+1 LMDIM =     18
   total plane-waves  NPLWV = 327680
   max r-space proj   IRMAX =   2514   max aug-charges    IRDMAX=   8903
   dimension x,y,z NGX =    64 NGY =   64 NGZ =   80
   dimension x,y,z NGXF=   128 NGYF=  128 NGZF=  160
   support grid    NGXF=   128 NGYF=  128 NGZF=  160
   ions per type =              95  95   1
   NGX,Y,Z   is equivalent  to a cutoff of   8.19,  8.19,  8.52 a.u.
   NGXF,Y,Z  is equivalent  to a cutoff of  16.38, 16.38, 17.04 a.u.

 SYSTEM =  zno                                     
 POSCAR =  Zn2 O2                                  

 Startparameter for this run:
   NWRITE =      2    write-flag & timer
   PREC   = normal    normal or accurate (medium, high low for compatibility)
   ISTART =      1    job   : 0-new  1-cont  2-samecut
   ICHARG =      1    charge: 1-file 2-atom 10-const
   ISPIN  =      2    spin polarized calculation?
   LNONCOLLINEAR =      F non collinear calculations
   LSORBIT =      F    spin-orbit coupling
   INIWAV =      1    electr: 0-lowe 1-rand  2-diag
   LASPH  =      F    aspherical Exc in radial PAW
 Electronic Relaxation 1
   ENCUT  =  400.0 eV  29.40 Ry    5.42 a.u.  21.19 21.19 25.46*2*pi/ulx,y,z
   ENINI  =  400.0     initial cutoff
   ENAUG  =  605.4 eV  augmentation charge cutoff
   NELM   =   1500;   NELMIN=  4; NELMDL=  0     # of ELM steps 
   EDIFF  = 0.1E-04   stopping-criterion for ELM
   LREAL  =      T    real-space projection
   NLSPLINE    = F    spline interpolate recip. space projectors
   LCOMPAT=      F    compatible to vasp.4.4
   GGA_COMPAT  = T    GGA compatible to vasp.4.4-vasp.4.6
   LMAXPAW     = -100 max onsite density
   LMAXMIX     =    2 max onsite mixed and CHGCAR
   VOSKOWN=      0    Vosko Wilk Nusair interpolation
   ROPT   =   -0.00050  -0.00050  -0.00050
 Ionic relaxation
   EDIFFG = 0.1E-01   stopping-criterion for IOM
   NSW    =     40    number of steps for IOM
   NBLOCK =      1;   KBLOCK =     40    inner block; outer block 
   IBRION =      2    ionic relax: 0-MD 1-quasi-New 2-CG
   NFREE  =      1    steps in history (QN), initial steepest desc. (CG)
   ISIF   =      2    stress and relaxation
   IWAVPR =     11    prediction:  0-non 1-charg 2-wave 3-comb
   ISYM   =      3    0-nonsym 1-usesym 2-fastsym
   LCORR  =      T    Harris-Foulkes like correction to forces

   POTIM  = 0.5000    time-step for ionic-motion
   TEIN   =    0.0    initial temperature
   TEBEG  =    0.0;   TEEND  =   0.0 temperature during run
   SMASS  =  -3.00    Nose mass-parameter (am)
   estimated Nose-frequenzy (Omega)   =  0.10E-29 period in steps = 0.13E+47 mass=  -0.386E-26a.u.
   SCALEE = 1.0000    scale energy and forces
   NPACO  =    256;   APACO  = 10.0  distance and # of slots for P.C.
   PSTRESS=    0.0 pullay stress

  Mass of Ions in am
   POMASS =  65.39 16.00 50.94
  Ionic Valenz
   ZVAL   =  12.00  6.00  5.00
  Atomic Wigner-Seitz radii
   RWIGS  =  -1.00 -1.00 -1.00
  virtual crystal weights 
   VCA    =   1.00  1.00  1.00
   NELECT =    1714.0000    total number of electrons
   NUPDOWN=      -1.0000    fix difference up-down

 DOS related values:
   EMIN   =  10.00;   EMAX   =-10.00  energy-range for DOS
   EFERMI =   0.00;   METHOD = LEGACY      
   ISMEAR =    -2;   SIGMA  =   0.01  broadening in eV -4-tet -1-fermi 0-gaus

 Electronic relaxation 2 (details)
   IALGO  =     53    algorithm
   LDIAG  =      F    sub-space diagonalisation (order eigenvalues)
   LSUBROT=      F    optimize rotation matrix (better conditioning)
   TURBO    =      0    0=normal 1=particle mesh
   IRESTART =      0    0=no restart 2=restart with 2 vectors
   NREBOOT  =      0    no. of reboots
   NMIN     =      0    reboot dimension
   EREF     =   0.00    reference energy to select bands
   IMIX   =      4    mixing-type and parameters
     AMIX     =   0.40;   BMIX     =  1.00
     AMIX_MAG =   1.60;   BMIX_MAG =  1.00
     AMIN     =   0.10
     WC   =   100.;   INIMIX=   1;  MIXPRE=   1;  MAXMIX= -45

 Intra band minimization:
   WEIMIN = 0.0010     energy-eigenvalue tresh-hold
   EBREAK =  0.19E-08  absolut break condition
   DEPER  =   0.30     relativ break condition  

   TIME   =   0.30     timestep for ELM

  volume/ion in A,a.u.               =      11.95        80.66
  Fermi-wavevector in a.u.,A,eV,Ry     =   1.487917  2.811755 30.121878  2.213896
  Thomas-Fermi vector in A             =   2.601017
 
 Write flags
   LWAVE        =      T    write WAVECAR
   LDOWNSAMPLE  =      F    k-point downsampling of WAVECAR
   LCHARG       =      T    write CHGCAR
   LVTOT        =      F    write LOCPOT, total local potential
   LVHAR        =      T    write LOCPOT, Hartree potential only
   LELF         =      F    write electronic localiz. function (ELF)
   LORBIT       =     11    0 simple, 1 ext, 2 COOP (PROOUT), +10 PAW based schemes


 Dipole corrections
   LMONO  =      F    monopole corrections only (constant potential shift)
   LDIPOL =      F    correct potential (dipole corrections)
   IDIPOL =      0    1-x, 2-y, 3-z, 4-all directions 
   EPSILON=  1.0000000 bulk dielectric constant

 Exchange correlation treatment:
   GGA     =    PE    GGA type
   LEXCH   =     8    internal setting for exchange type
   LIBXC   =     F    Libxc                    
   VOSKOWN =     0    Vosko Wilk Nusair interpolation
   EXXOEP  =     0    0=HF, 1=EXX-LHF (local Hartree Fock) 2=EXX OEP
   LHFCALC =     T    Hartree Fock is set to
   LSYMGRAD=     F    symmetrize gradient (conserves proper symmetry)
   PRECFOCK=normal    Normal, Fast or Accurate (Low or Medium for compatibility)
   LRHFCALC=     F    long range Hartree Fock
   LRSCOR  =     F    long range correlation only (use DFT for short range part)
   LTHOMAS =     F    Thomas Fermi screening in HF
   LMODELHF=     F    short range full HF, long range fraction AEXX
   FOCKCORR=     1    mode to apply convergence corrections
   LFOCKACE=     T    use Adeptively-Compressed-Exchange operator
   ENCUT4O =  -1.0   cutoff for four orbital integrals eV
   LMAXFOCK=     4    L truncation for augmentation on plane wave grid
   LMAXFOCKAE=  -1    L truncation for all-electron charge restoration on plane wave grid
   NMAXFOCKAE=   1    number of basis functions for all-electron charge restoration
   LFOCKAEDFT=     F  apply the AE augmentation even for DFT
   NKREDX  =     1    reduce k-point grid by
   NKREDY  =     1    reduce k-point grid by
   NKREDZ  =     1    reduce k-point grid by
   SHIFTRED=     F    shift reduced grid of Gamma
   HFKIDENT=     F    idential grid for each k-point
   ODDONLY =     F    use only odd q-grid points
   EVENONLY=     F    use only even q-grid points
   HFALPHA =   -1.0000 decay constant for conv. correction
   MCALPHA =    0.0000 extent of test-charge in conv. correction in multipole expansion
   AEXX    =    0.3750 exact exchange contribution
   HFSCREEN=    0.2000 screening length (either q_TF or 0.3 A-1)
   HFSCREENC=   0.2000 screening length for correlation (either q_TF or 0.3 A-1)
   HFRCUT  =    0.0000 spherical cutoff for potential kernel
   ALDAX   =    0.6250 LDA exchange part
   AGGAX   =    0.6250 GGA exchange part
   ALDAC   =    1.0000 LDA correlation
   AGGAC   =    1.0000 GGA correlation
   ENCUTFOCK=  -1.0 apply spherical cutoff to Coloumb kernel
   NBANDSGWLOW=     1    first orbital included in HF term
   NBLOCK_FOCK=    64    blocking factor in FOCK_ACC

 Linear response parameters
   LEPSILON=     F    determine dielectric tensor
   LRPA    =     F    only Hartree local field effects (RPA)
   LNABLA  =     F    use nabla operator in PAW spheres
   LVEL    =     F    velocity operator in full k-point grid
   CSHIFT  =0.1000    complex shift for real part using Kramers Kronig
   OMEGAMAX=  -1.0    maximum frequency
   DEG_THRESHOLD= 0.2000000E-02 threshold for treating states as degnerate
   RTIME   =   -0.100 relaxation time in fs
  (WPLASMAI=    0.000 imaginary part of plasma frequency in eV, 0.658/RTIME)
   DFIELD  = 0.0000000 0.0000000 0.0000000 field for delta impulse in time
 
  Optional k-point grid parameters
   LKPOINTS_OPT  =     F    use optional k-point grid
   KPOINTS_OPT_MODE=     1    mode for optional k-point grid
 
 Orbital magnetization related:
   ORBITALMAG=     F  switch on orbital magnetization
   LCHIMAG   =     F  perturbation theory with respect to B field
   DQ        =  0.001000  dq finite difference perturbation B field
   LLRAUG    =     F  two centre corrections for induced B field
   LBONE     =     F  B-component reconstruction in AE one-centre
   LVGVCALC  =     T  calculate vGv susceptibility
   LVGVAPPL  =     F  apply vGv susceptibility instead of pGv for G=0

 Random number generation:
   RANDOM_GENERATOR = DEFAULT
   PCG_SEED         = not used


--------------------------------------------------------------------------------------------------------


 conjugate gradient relaxation of ions
 charge density and potential will be updated during run
 spin polarized calculation
 Conjugate gradient for all bands (Kresse, et al. variant)
 perform Loewdin sub-space diagonalisation
    ordering is kept fixed
    before iterative eigenvector-optimisation
 modified Broyden-mixing scheme, WC =      100.0
 initial mixing is a Kerker type mixing with AMIX =  0.4000 and BMIX =      1.0000
 Hartree-type preconditioning will be used
 using additional bands          487
 real space projection scheme for non local part
 use partial core corrections
 no Harris-corrections to forces 
 use gradient corrections 
 use of overlap-Matrix (Vanderbilt PP)
 partial occupancies read from INCAR or WAVECAR (fixed during run)


--------------------------------------------------------------------------------------------------------


  energy-cutoff  :      400.00
  volume of cell :     2282.97
      direct lattice vectors                 reciprocal lattice vectors
    12.994354248  0.000000000  0.000000000     0.076956498  0.044430855  0.000000000
    -6.497176647 11.253440059  0.000000000     0.000000000  0.088861716  0.000000000
     0.000000000  0.000000000 15.612038612     0.000000000  0.000000000  0.064053134

  length of vectors
    12.994354248 12.994353294 15.612038612     0.088861710  0.088861716  0.064053134


 
 old parameters found on file WAVECAR:
  energy-cutoff  :      400.00
  volume of cell :     2282.97
      direct lattice vectors                 reciprocal lattice vectors
    12.994354248  0.000000000  0.000000000     0.076956498  0.044430855  0.000000000
    -6.497176647 11.253440059  0.000000000     0.000000000  0.088861716  0.000000000
     0.000000000  0.000000000 15.612038612     0.000000000  0.000000000  0.064053134

  length of vectors

 
 k-points in units of 2pi/SCALE and weight: pymatgen with grid density = 659 / numbe
   0.00000000  0.00000000  0.00000000       1.000
 
 k-points in reciprocal lattice and weights: pymatgen with grid density = 659 / numbe
   0.00000000  0.00000000  0.00000000       1.000
 
 position of ions in fractional coordinates (direct lattice) 
   0.16663907  0.08336092  0.16621081
   0.16673150  0.08326849  0.50028929
   0.16668104  0.08331895  0.83338637
   0.16640026  0.33319139  0.16630383
   0.16616649  0.33307571  0.50007619
   0.16660971  0.33329690  0.83361449
   0.16663289  0.58326523  0.16621223
   0.16673765  0.58346257  0.50029116
   0.16667290  0.58335123  0.83340635
   0.16675856  0.83337922  0.16616560
   0.16729336  0.83364461  0.50033977
   0.16669634  0.83335170  0.83354079
   0.41662078  0.08324143  0.16616560
   0.41635539  0.08270663  0.50033977
   0.41664830  0.08330366  0.83354079
   0.41590993  0.33286519  0.16650376
   0.41285392  0.33099388  0.50150790
   0.41762930  0.33386963  0.83314008
   0.41589948  0.58304956  0.16649938
   0.41276422  0.58187804  0.50151077
   0.41758910  0.58377433  0.83315145
   0.41660755  0.83339245  0.16615691
   0.41632262  0.83367738  0.50034806
   0.41662131  0.83337869  0.83355252
   0.66673477  0.08336710  0.16621223
   0.66653743  0.08326234  0.50029116
   0.66664877  0.08332709  0.83340635
   0.66696594  0.33286121  0.16649513
   0.66820853  0.33093206  0.50151433
   0.66626137  0.33384531  0.83314824
   0.66666225  0.58333775  0.16708438
   0.66665435  0.58334565  0.83529803
   0.66695044  0.83410052  0.16649938
   0.66812196  0.83723578  0.50151077
   0.66622567  0.83241090  0.83315145
   0.91680861  0.08359973  0.16630383
   0.91692429  0.08383350  0.50007619
   0.91670310  0.08339029  0.83361449
   0.91681422  0.33318578  0.16630056
   0.91695957  0.33304043  0.50007925
   0.91672321  0.33327679  0.83363345
   0.91713879  0.58303406  0.16649513
   0.91906794  0.58179147  0.50151433
   0.91615469  0.58373863  0.83314824
   0.91713481  0.83409007  0.16650376
   0.91900612  0.83714608  0.50150790
   0.91613037  0.83237070  0.83314008
   0.08334758  0.16665241  0.99998207
   0.08329343  0.16670656  0.33303295
   0.08338899  0.16661100  0.66694372
   0.08335424  0.41668392  0.99999196
   0.08330132  0.41658690  0.33303655
   0.08344416  0.41682447  0.66695145
   0.08324806  0.66660818  0.99981668
   0.08427045  0.66704521  0.33279281
   0.08233906  0.66671748  0.66723779
   0.08323689  0.91663443  0.99981031
   0.08426276  0.91722403  0.33280213
   0.08227501  0.91560371  0.66722074
   0.33336557  0.16676310  0.99981031
   0.33277597  0.16573723  0.33280213
   0.33439629  0.16772498  0.66722074
   0.33344121  0.41672456  0.99981469
   0.33235772  0.41618812  0.33297911
   0.33350965  0.41680536  0.66783997
   0.33335577  0.66661381  0.99981790
   0.33277471  0.66706477  0.33278968
   0.33438783  0.66677273  0.66724384
   0.33332292  0.91667708  0.99993015
   0.33332346  0.91667654  0.33267914
   0.33329898  0.91670102  0.66695403
   0.58339182  0.16675193  0.99981668
   0.58295479  0.16572955  0.33279281
   0.58328252  0.16766094  0.66723779
   0.58322407  0.41643410  0.00096591
   0.58235145  0.41466337  0.33044171
   0.58873011  0.42731110  0.66504865
   0.58321390  0.66678610  0.00096986
   0.58232055  0.66767945  0.33044517
   0.58862811  0.66137189  0.66506369
   0.58338619  0.91664423  0.99981790
   0.58293523  0.91722529  0.33278968
   0.58322727  0.91561217  0.66724384
   0.83331608  0.16664575  0.99999196
   0.83341310  0.16669867  0.33303655
   0.83317553  0.16655583  0.66695145
   0.83328979  0.41671021  0.99981643
   0.83383974  0.41616026  0.33296820
   0.83333035  0.41666965  0.66786357
   0.83356590  0.66677593  0.00096591
   0.83533663  0.66764855  0.33044171
   0.82268890  0.66126989  0.66504865
   0.83327544  0.91655879  0.99981469
   0.83381188  0.91764228  0.33297911
   0.83319464  0.91649035  0.66783997
   0.16662080  0.08337919  0.29377120
   0.16695482  0.08304518  0.62715357
   0.16668618  0.08331382  0.96046363
   0.16664293  0.33331056  0.29382670
   0.16751898  0.33375604  0.62695452
   0.16680931  0.33339318  0.96061562
   0.16661284  0.58322241  0.29376738
   0.16698147  0.58392871  0.62714909
   0.16667992  0.58335064  0.96047656
   0.16658081  0.83329049  0.29369833
   0.16623637  0.83312778  0.62700665
   0.16659587  0.83329406  0.96055043
   0.41670951  0.08341918  0.29369833
   0.41687222  0.08376362  0.62700665
   0.41670594  0.08340413  0.96055043
   0.41668333  0.33334666  0.29465516
   0.42052009  0.33650757  0.62738352
   0.41729976  0.33372180  0.96029779
   0.41667049  0.58333743  0.29465301
   0.42045465  0.58410388  0.62738693
   0.41728803  0.58358335  0.96030862
   0.41669702  0.83330298  0.29368942
   0.41683009  0.83316991  0.62700548
   0.41669411  0.83330589  0.96055789
   0.66677759  0.08338715  0.29376738
   0.66607129  0.08301852  0.62714909
   0.66664936  0.08332007  0.96047656
   0.66668688  0.33333542  0.29464312
   0.66607073  0.33639837  0.62739139
   0.66643794  0.33370452  0.96030981
   0.66666114  0.58333886  0.29703662
   0.66666721  0.58333279  0.96149575
   0.66666257  0.83332951  0.29465301
   0.66589612  0.82954535  0.62738693
   0.66641665  0.83271197  0.96030862
   0.91668944  0.08335706  0.29382670
   0.91624396  0.08248101  0.62695452
   0.91660682  0.08319068  0.96061562
   0.91670110  0.33329890  0.29382115
   0.91631560  0.33368440  0.62695439
   0.91661521  0.33338479  0.96062865
   0.91666458  0.58331312  0.29464312
   0.91360163  0.58392927  0.62739139
   0.91629548  0.58356206  0.96030981
   0.91665334  0.83331667  0.29465516
   0.91349243  0.82947991  0.62738352
   0.91627820  0.83270024  0.96029779
   0.08334616  0.16665383  0.12726577
   0.08350514  0.16649485  0.46040090
   0.08332184  0.16667816  0.79367416
   0.08335283  0.41669276  0.12727112
   0.08353739  0.41702798  0.46040179
   0.08333658  0.41665611  0.79367796
   0.08319892  0.66659119  0.12726055
   0.08267027  0.66677035  0.46035228
   0.08285486  0.66651666  0.79378751
   0.08319153  0.91661223  0.12725708
   0.08262525  0.91588074  0.46036511
   0.08283050  0.91633393  0.79377514
   0.33338777  0.16680847  0.12725708
   0.33411926  0.16737475  0.46036511
   0.33366607  0.16716949  0.79377514
   0.33342395  0.41671931  0.12741065
   0.33430847  0.41717393  0.46050928
   0.33361026  0.41682534  0.79408118
   0.33338190  0.66659935  0.12726058
   0.33409132  0.66681628  0.46034433
   0.33364875  0.66654558  0.79379306
   0.33332049  0.91667951  0.12722138
   0.33330703  0.91669297  0.46003525
   0.33331147  0.91668853  0.79373410
   0.58340881  0.16680107  0.12726055
   0.58322965  0.16732972  0.46035228
   0.58348334  0.16714513  0.79378751
   0.58342556  0.41685171  0.12866566
   0.58654987  0.42291715  0.46278914
   0.58431588  0.41857318  0.79148244
   0.58341466  0.66658534  0.12866731
   0.58641318  0.66358682  0.46285446
   0.58425458  0.66574542  0.79149188
   0.58340065  0.91661810  0.12726058
   0.58318372  0.91590868  0.46034433
   0.58345442  0.91635125  0.79379306
   0.83330724  0.16664716  0.12727112
   0.83297202  0.16646260  0.46040179
   0.83334389  0.16666342  0.79367796
   0.83329545  0.41670455  0.12741079
   0.83290419  0.41709581  0.46049208
   0.83322172  0.41677828  0.79410144
   0.83314829  0.66657444  0.12866566
   0.82708285  0.66345013  0.46278914
   0.83142682  0.66568412  0.79148244
   0.83328069  0.91657605  0.12741065
   0.83282607  0.91569153  0.46050928
   0.83317466  0.91638974  0.79408118
   0.66663110  0.58336890  0.49511074
 
 position of ions in cartesian coordinates  (Angst):
   1.62375653  0.93809710  2.59488953
   1.62555814  0.93705694  7.81053571
   1.62457452  0.93762484 13.01086015
  -0.00253936  3.74954935  2.59634188
  -0.00482541  3.74824749  7.80720883
  -0.00050328  3.75073667 13.01442162
  -1.62429042  6.56374032  2.59491182
  -1.62421128  6.56596109  7.81056484
  -1.62432923  6.56470805 13.01117208
  -3.24769226  9.37838312  2.59418376
  -3.24246707  9.38136960  7.81132374
  -3.24832195  9.37807338 13.01327094
   4.87288367  0.93675250  2.59418376
   4.87290989  0.93073412  7.81132374
   4.87283707  0.93745270 13.01327094
   3.24179697  3.74587851  2.59946315
   3.21424434  3.72481980  7.82956074
   3.25761316  3.75718183 13.00701504
   1.61616918  6.56131328  2.59939479
   1.58304003  6.54812966  7.82960557
   1.63341576  6.56946943 13.00719255
  -0.00115192  9.37853200  2.59404814
  -0.00670568  9.38173847  7.81145323
  -0.00088367  9.37837713 13.01345410
   8.12213700  0.93816667  2.59491182
   8.12025332  0.93698775  7.81056484
   8.12127951  0.93771642 13.01117208
   6.50413362  3.74583368  2.59932836
   6.53281430  3.72412405  7.82966101
   6.48858432  3.75690816 13.00714256
   4.87279707  6.56455638  2.60852772
   4.87264311  6.56464527 13.04070504
   3.24729185  9.38650021  2.59939479
   3.24214463  9.42178271  7.82960557
   3.24885170  9.36748616 13.00719255
  11.37017364  0.94078454  2.59634188
  11.37015806  0.94341524  7.80720883
  11.37016342  0.93842758 13.01442162
   9.74864188  3.74948621  2.59629070
   9.75147496  3.74785053  7.80725652
   9.74686804  3.75051034 13.01471756
   8.12955105  6.56113884  2.59932836
   8.16269249  6.54715546  7.82966101
   8.11218562  6.56906768 13.00714256
   6.49834402  9.38638263  2.59946315
   6.50280509  9.42077326  7.82956074
   6.49646316  9.36703375 13.00701504
   0.00027791  1.87541288 15.61175867
  -0.00077757  1.87602226  5.19932330
   0.00108499  1.87494691 10.41235104
  -1.62413444  4.68912747 15.61191312
  -1.62419178  4.68803571  5.19937947
  -1.62387925  4.69070920 10.41247176
  -3.24931631  7.50163521 15.60917662
  -3.23887053  7.50655325  5.19557414
  -3.26183837  7.50286516 10.41694207
  -4.87392613 10.31529060 15.60907710
  -4.86442644 10.32192568  5.19571972
  -4.87972834 10.30369141 10.41667599
   3.24838102  1.87665854 15.60907710
   3.24738471  1.86511402  5.19571972
   3.25552510  1.88748299 10.41667599
   1.62532007  4.68958487 15.60914560
   1.61472625  4.68354802  5.19848266
   1.62568448  4.69049414 10.42634334
   0.00063524  7.50169853 15.60919573
  -0.00984521  7.50677346  5.19552527
   0.01301371  7.50348696 10.41703665
  -1.62449681 10.31577057 15.61094819
  -1.62448627 10.31576449  5.19379953
  -1.62496342 10.31603997 10.41251212
   6.49738321  1.87653286 15.60917662
   6.49834695  1.86502752  5.19557414
   6.49005701  1.88676230 10.41694207
   4.87297435  4.68631615  0.01507981
   4.87313985  4.66638938  5.15886878
   4.87385188  4.80871985 10.38276517
   3.24626092  7.50363742  0.01514143
   3.22884810  7.51369072  5.15892283
   3.35179225  7.44270888 10.38300003
   1.62512732 10.31540095 15.60919573
   1.61549209 10.32193982  5.19552527
   1.62976774 10.30378667 10.41703665
   9.74567753  1.87533794 15.61191312
   9.74659435  1.87593348  5.19937947
   9.74443531  1.87432607 10.41247176
   8.12062284  4.68942339 15.60917279
   8.13134233  4.68323449  5.19831242
   8.12141341  4.68896695 10.42671181
   6.49948967  7.50352291  0.01507981
   6.51682951  7.51334296  5.15886878
   6.39392370  7.44156109 10.38276517
   4.87283185 10.31443945 15.60914560
   4.87276300 10.32663239  5.19848266
   4.87222661 10.31366922 10.42634334
   1.62340043  0.93830270  4.58636737
   1.62991086  0.93454390  9.79114573
   1.62467462  0.93756704 14.99479532
  -0.00016029  3.75089042  4.58723378
   0.00832911  3.75590353  9.78803825
   0.00146485  3.75182017 14.99716815
  -1.62427278  6.56325849  4.58630770
  -1.62407156  6.57120673  9.79107584
  -1.62423419  6.56470146 14.99499718
  -3.24942545  9.37738462  4.58522963
  -3.25284406  9.37555359  9.78885200
  -3.24925302  9.37742477 14.99615037
   4.87288180  0.93875274  4.58522963
   4.87275821  0.94262886  9.78885200
   4.87293325  0.93858333 14.99615037
   3.24871863  3.75129664  4.60016768
   3.27803791  3.78686781  9.79473579
   3.25429143  3.75551824 14.99220622
   1.62431771  6.56455275  4.60013422
   1.66851058  6.57317795  9.79478904
   1.63074440  6.56732028 14.99237531
   0.00059211  9.37752509  4.58509061
   0.00318580  9.37602762  9.78883371
   0.00053535  9.37755786 14.99626679
   8.12256310  0.93839231  4.58630770
   8.11578033  0.93424392  9.79107584
   8.12133273  0.93763740 14.99499718
   6.49742644  3.75117018  4.59997972
   6.46951937  3.78563884  9.79485860
   6.49179352  3.75532379 14.99239378
   4.87277543  6.56456887  4.63734717
   4.87289365  6.56450062 15.01090875
   3.24856065  9.37782364  4.60013422
   3.26318744  9.33523890  9.79478904
   3.24937725  9.37087420 14.99237531
  11.37020177  0.93805367  4.58723378
  11.37010498  0.92819508  9.78803825
  11.37020915  0.93618138 14.99716815
   9.74643707  3.75075915  4.58714712
   9.73892308  3.75509736  9.78803607
   9.74476289  3.75172574 14.99737164
   8.12157592  6.56427918  4.59997972
   8.07777164  6.57121308  9.79485860
   8.11516232  6.56708062 14.99239378
   6.49711261  9.37767924  4.60016768
   6.48096671  9.33450241  9.79473579
   6.49624300  9.37074225 14.99220622
   0.00025017  1.87542889  1.98687817
   0.00334899  1.87363979  7.18779657
  -0.00022397  1.87570264 12.39087157
  -1.62421028  4.68922695  1.98696161
  -1.62399006  4.69299941  7.18781050
  -1.62418334  4.68881451 12.39093094
  -3.24984445  7.50144404  1.98679667
  -3.25787798  7.50346021  7.18703757
  -3.25383104  7.50060530 12.39264132
  -4.87437142 10.31504078  1.98674239
  -4.87697726 10.30680906  7.18723784
  -4.87725452 10.31190896 12.39244819
   3.24837472  1.87716908  1.98674239
   3.25420068  1.88354167  7.18723784
   3.24964541  1.88123183 12.39244819
   1.62512996  4.68952575  1.98913991
   1.63367001  4.69464179  7.18948864
   1.62686196  4.69071903 12.39722599
   0.00106881  7.50153588  1.98679711
   0.00887775  7.50397703  7.18691351
   0.00488570  7.50093075 12.39272788
  -1.62454424 10.31579795  1.98618514
  -1.62480656 10.31594941  7.18208803
  -1.62471999 10.31589942 12.39180739
   6.49728469  1.87708582  1.98679667
   6.49152188  1.88303498  7.18703757
   6.49601777  1.88095769 12.39264132
   4.87287926  4.69101568  2.00873331
   4.87406935  4.75927280  7.22508189
   4.87326361  4.71038818 12.35665445
   3.25017405  7.50137817  2.00875904
   3.30861987  7.46763447  7.22610167
   3.26654530  7.49192623 12.35680187
   1.62548497 10.31510680  1.98679711
   1.62727534 10.30712348  7.18691351
   1.62791747 10.31210383 12.39272788
   9.74555346  1.87535388  1.98696161
   9.74239652  1.87327693  7.18781050
   9.74592411  1.87553677 12.39093094
   8.12073325  4.68935965  1.98914218
   8.11310698  4.69376268  7.18922012
   8.11929600  4.69018944 12.39754235
   6.49537221  7.50125549  2.00873331
   6.43685484  7.46609628  7.22508189
   6.47878731  7.49123638 12.35665445
   4.87278799 10.31463365  1.98913991
   4.87262740 10.30467972  7.18948864
   4.87262058 10.31253705 12.39722599
   4.87218978  6.56490700  7.72968801
 


--------------------------------------------------------------------------------------------------------


 use parallel FFT for orbitals z direction half grid
 k-point   1 :   0.0000 0.0000 0.0000  plane waves:   20744

 maximum and minimum number of plane-waves per node :      2599     2585

 maximum number of plane-waves:     20744
 maximum index in each direction: 
   IXMAX=   21   IYMAX=   21   IZMAX=   25
   IXMIN=  -21   IYMIN=  -21   IZMIN=    0


 real space projection operators:
  total allocation   :      30030.02 KBytes
  max/ min on nodes  :       4074.48       3468.55


 parallel 3D FFT for wavefunctions:
    minimum data exchange during FFTs selected (reduces bandwidth)
 parallel 3D FFT for charge:
    minimum data exchange during FFTs selected (reduces bandwidth)

 
 Radii for the augmentation spheres in the non-local exchange
 for species   1 augmentation radius   1.190 (default was   0.952)
       energy cutoff for augmentation   1600.0
 for species   2 augmentation radius   0.902 (default was   0.722)
       energy cutoff for augmentation   1600.0
 for species   3 augmentation radius   1.508 (default was   1.206)
       energy cutoff for augmentation   1600.0

 real space projection operators:
  total allocation   :      22133.65 KBytes
  max/ min on nodes  :       2941.58       2495.89

 Maximum index for augmentation-charges in exchange          271
  SETUP_FOCK is finished

 total amount of memory used by VASP MPI-rank0    53918. kBytes
=======================================================================

   base      :      30000. kBytes
   nonlr-proj:       8620. kBytes
   fftplans  :       2267. kBytes
   grid      :       5113. kBytes
[...]
      9.74592      1.87554     12.39093        -0.000482     -0.000286     -0.000566
      8.12073      4.68936      1.98914         0.000148     -0.000086     -0.004036
      8.11311      4.69376      7.18922         0.002013     -0.001162     -0.005314
      8.11930      4.69019     12.39754         0.001902     -0.001098      0.002567
      6.49537      7.50126      2.00873        -0.001724     -0.001001      0.007173
      6.43685      7.46610      7.22508         0.009568      0.006348     -0.009665
      6.47879      7.49124     12.35665         0.003550      0.001749      0.006358
      4.87279     10.31463      1.98914        -0.000356      0.000018     -0.003599
      4.87263     10.30468      7.18949        -0.001415      0.001206     -0.005027
      4.87262     10.31254     12.39723        -0.000068      0.002129      0.002484
      4.87219      6.56491      7.72969         0.006952     -0.004014     -0.018443
 -----------------------------------------------------------------------------------
    total drift:                               -0.006458     -0.039725      0.023740


--------------------------------------------------------------------------------------------------------



  FREE ENERGIE OF THE ION-ELECTRON SYSTEM (eV)
  ---------------------------------------------------
  free  energy   TOTEN  =     -1222.69887109 eV

  energy  without entropy=    -1222.69887109  energy(sigma->0) =    -1222.69887109
 


--------------------------------------------------------------------------------------------------------


    POTLOK:  cpu time      0.3731: real time      0.3747


--------------------------------------------------------------------------------------------------------




--------------------------------------------------------------------------------------------------------


  
 reached required accuracy - stopping structural energy minimisation
 writing wavefunctions
     LOOP+:  cpu time  35366.2201: real time  35725.9467
    4ORBIT:  cpu time      0.0000: real time      0.0000



 total charge

# of ion       s       p       d       tot
------------------------------------------
    1        0.409   0.478   9.951  10.839
    2        0.407   0.474   9.949  10.830
    3        0.408   0.475   9.950  10.833
    4        0.409   0.478   9.951  10.839
    5        0.408   0.475   9.949  10.832
    6        0.408   0.476   9.950  10.835
    7        0.409   0.479   9.951  10.839
    8        0.408   0.474   9.949  10.831
    9        0.408   0.475   9.950  10.833
   10        0.409   0.478   9.951  10.839
   11        0.409   0.478   9.951  10.838
   12        0.408   0.477   9.950  10.835
   13        0.409   0.478   9.951  10.839
   14        0.409   0.478   9.951  10.838
   15        0.408   0.477   9.950  10.835
   16        0.409   0.478   9.951  10.837
   17        0.409   0.474   9.947  10.831
   18        0.408   0.474   9.949  10.830
   19        0.409   0.478   9.951  10.837
   20        0.409   0.474   9.947  10.831
   21        0.408   0.474   9.949  10.830
   22        0.409   0.478   9.951  10.839
   23        0.409   0.478   9.951  10.838
   24        0.408   0.477   9.950  10.835
   25        0.409   0.479   9.951  10.839
   26        0.408   0.474   9.949  10.831
   27        0.408   0.475   9.950  10.833
   28        0.409   0.478   9.951  10.837
   29        0.409   0.474   9.947  10.831
   30        0.408   0.474   9.949  10.830
   31        0.408   0.473   9.948  10.829
   32        0.410   0.484   9.953  10.847
   33        0.409   0.478   9.951  10.837
   34        0.409   0.474   9.947  10.831
   35        0.408   0.474   9.949  10.830
   36        0.409   0.478   9.951  10.839
   37        0.408   0.475   9.949  10.832
   38        0.408   0.476   9.950  10.835
   39        0.409   0.478   9.951  10.839
   40        0.408   0.475   9.949  10.832
   41        0.408   0.476   9.950  10.835
   42        0.409   0.478   9.951  10.837
   43        0.409   0.474   9.947  10.831
   44        0.408   0.474   9.949  10.830
   45        0.409   0.478   9.951  10.837
   46        0.409   0.474   9.947  10.831
   47        0.408   0.474   9.949  10.830
   48        0.409   0.477   9.951  10.837
   49        0.409   0.479   9.951  10.839
   50        0.407   0.474   9.949  10.830
   51        0.409   0.478   9.951  10.837
   52        0.409   0.479   9.951  10.839
   53        0.407   0.474   9.949  10.830
   54        0.408   0.476   9.950  10.835
   55        0.409   0.479   9.952  10.840
   56        0.408   0.469   9.946  10.823
   57        0.408   0.476   9.950  10.835
   58        0.409   0.479   9.952  10.840
   59        0.407   0.469   9.946  10.822
   60        0.408   0.476   9.950  10.835
   61        0.409   0.479   9.952  10.840
   62        0.407   0.469   9.946  10.822
   63        0.408   0.475   9.950  10.833
   64        0.409   0.479   9.952  10.841
   65        0.408   0.476   9.950  10.834
   66        0.408   0.476   9.950  10.835
   67        0.409   0.479   9.952  10.840
   68        0.408   0.469   9.946  10.823
   69        0.409   0.477   9.951  10.837
   70        0.409   0.479   9.951  10.839
   71        0.408   0.473   9.949  10.830
   72        0.408   0.476   9.950  10.835
   73        0.409   0.479   9.952  10.840
   74        0.408   0.469   9.946  10.823
   75        0.408   0.477   9.950  10.835
   76        0.412   0.476   9.949  10.837
   77        0.433   0.427   9.894  10.755
   78        0.408   0.477   9.950  10.835
   79        0.412   0.476   9.949  10.837
   80        0.433   0.427   9.894  10.755
   81        0.408   0.476   9.950  10.835
   82        0.409   0.479   9.952  10.840
   83        0.408   0.469   9.946  10.823
   84        0.409   0.478   9.951  10.837
   85        0.409   0.479   9.951  10.839
   86        0.407   0.474   9.949  10.830
   87        0.408   0.475   9.950  10.833
   88        0.409   0.479   9.952  10.841
   89        0.409   0.476   9.950  10.835
   90        0.408   0.477   9.950  10.835
   91        0.412   0.476   9.949  10.837
   92        0.433   0.427   9.894  10.755
   93        0.408   0.475   9.950  10.833
   94        0.409   0.479   9.952  10.841
   95        0.408   0.476   9.950  10.834
   96        1.573   3.532   0.000   5.105
   97        1.574   3.523   0.000   5.097
   98        1.573   3.530   0.000   5.103
   99        1.573   3.532   0.000   5.105
  100        1.574   3.527   0.000   5.101
  101        1.573   3.530   0.000   5.104
  102        1.573   3.532   0.000   5.105
  103        1.574   3.523   0.000   5.097
  104        1.573   3.530   0.000   5.103
  105        1.573   3.531   0.000   5.105
  106        1.574   3.529   0.000   5.103
  107        1.573   3.530   0.000   5.104
  108        1.573   3.531   0.000   5.105
  109        1.574   3.529   0.000   5.103
  110        1.573   3.530   0.000   5.104
  111        1.573   3.531   0.000   5.105
  112        1.577   3.519   0.000   5.096
  113        1.574   3.528   0.000   5.102
  114        1.573   3.532   0.000   5.105
  115        1.577   3.519   0.000   5.096
  116        1.574   3.529   0.000   5.102
  117        1.573   3.531   0.000   5.105
  118        1.574   3.529   0.000   5.103
  119        1.573   3.530   0.000   5.104
  120        1.573   3.532   0.000   5.105
  121        1.574   3.523   0.000   5.097
  122        1.573   3.530   0.000   5.103
  123        1.573   3.532   0.000   5.105
  124        1.577   3.519   0.000   5.096
  125        1.574   3.528   0.000   5.102
  126        1.575   3.526   0.000   5.101
  127        1.573   3.530   0.000   5.104
  128        1.573   3.532   0.000   5.105
  129        1.577   3.519   0.000   5.096
  130        1.574   3.529   0.000   5.102
  131        1.573   3.532   0.000   5.105
  132        1.574   3.527   0.000   5.101
  133        1.573   3.530   0.000   5.104
  134        1.573   3.532   0.000   5.105
  135        1.574   3.527   0.000   5.101
  136        1.573   3.530   0.000   5.104
  137        1.573   3.532   0.000   5.105
  138        1.577   3.519   0.000   5.096
  139        1.574   3.528   0.000   5.102
  140        1.573   3.531   0.000   5.105
  141        1.577   3.519   0.000   5.096
  142        1.574   3.528   0.000   5.102
  143        1.573   3.531   0.000   5.105
  144        1.574   3.529   0.000   5.102
  145        1.573   3.530   0.000   5.103
  146        1.573   3.531   0.000   5.105
  147        1.574   3.529   0.000   5.102
  148        1.573   3.530   0.000   5.103
  149        1.573   3.531   0.000   5.104
  150        1.574   3.529   0.000   5.103
  151        1.574   3.530   0.000   5.103
  152        1.573   3.531   0.000   5.104
  153        1.574   3.529   0.000   5.103
  154        1.574   3.530   0.000   5.103
  155        1.573   3.531   0.000   5.104
  156        1.574   3.529   0.000   5.103
  157        1.574   3.530   0.000   5.103
  158        1.573   3.530   0.000   5.104
  159        1.574   3.531   0.000   5.104
  160        1.574   3.531   0.000   5.105
  161        1.573   3.531   0.000   5.104
  162        1.574   3.529   0.000   5.103
  163        1.574   3.530   0.000   5.103
  164        1.573   3.531   0.000   5.105
  165        1.573   3.530   0.000   5.104
  166        1.574   3.530   0.000   5.103
  167        1.573   3.531   0.000   5.104
  168        1.574   3.529   0.000   5.103
  169        1.574   3.530   0.000   5.103
  170        1.574   3.529   0.000   5.102
  171        1.585   3.528   0.000   5.113
  172        1.576   3.522   0.000   5.098
  173        1.574   3.529   0.000   5.102
  174        1.585   3.528   0.000   5.113
  175        1.576   3.522   0.000   5.098
  176        1.573   3.531   0.000   5.104
  177        1.574   3.529   0.000   5.103
  178        1.574   3.530   0.000   5.103
  179        1.573   3.531   0.000   5.105
  180        1.574   3.529   0.000   5.102
  181        1.573   3.530   0.000   5.103
  182        1.573   3.530   0.000   5.104
  183        1.574   3.531   0.000   5.104
  184        1.574   3.531   0.000   5.105
  185        1.574   3.529   0.000   5.102
  186        1.585   3.528   0.000   5.113
  187        1.576   3.522   0.000   5.098
  188        1.573   3.530   0.000   5.104
  189        1.574   3.531   0.000   5.104
  190        1.574   3.531   0.000   5.105
  191        0.488   0.721   3.460   4.669
--------------------------------------------------
tot        188.927 381.030 948.5371518.494



 magnetization (x)

# of ion       s       p       d       tot
------------------------------------------
    1        0.000   0.000  -0.000   0.000
    2        0.000   0.000  -0.000   0.000
    3        0.001   0.000  -0.000   0.001
    4        0.000   0.000  -0.000   0.000
    5        0.000   0.000  -0.000   0.000
    6        0.000   0.000  -0.000   0.000
    7        0.000   0.000  -0.000   0.000
    8        0.000   0.000  -0.000   0.000
    9        0.001   0.000  -0.000   0.001
   10        0.000   0.000  -0.000   0.000
   11        0.000   0.000  -0.000   0.000
   12        0.000   0.000  -0.000   0.000
   13        0.000   0.000  -0.000   0.000
   14        0.000   0.000  -0.000   0.000
   15        0.000   0.000  -0.000   0.000
   16        0.000   0.000  -0.000   0.000
   17        0.001   0.001   0.000   0.002
   18        0.001  -0.000  -0.000   0.000
   19        0.000   0.000  -0.000   0.000
   20        0.001   0.001   0.000   0.002
   21        0.001  -0.000  -0.000   0.000
   22        0.000   0.000  -0.000   0.000
   23        0.000   0.000  -0.000   0.000
   24        0.000   0.000  -0.000   0.000
   25        0.000   0.000  -0.000   0.000
   26        0.000   0.000  -0.000   0.000
   27        0.001   0.000  -0.000   0.001
   28        0.000   0.000  -0.000   0.000
   29        0.001   0.001   0.000   0.002
   30        0.001  -0.000  -0.000   0.000
   31        0.001   0.000  -0.000   0.001
   32        0.000   0.000  -0.000   0.000
   33        0.000   0.000  -0.000   0.000
   34        0.001   0.001   0.000   0.002
   35        0.001  -0.000  -0.000   0.000
   36        0.000   0.000  -0.000   0.000
   37        0.000   0.000  -0.000   0.000
   38        0.000   0.000  -0.000   0.000
   39        0.000   0.000  -0.000   0.000
   40        0.000   0.000  -0.000   0.000
   41        0.000   0.000  -0.000   0.000
   42        0.000   0.000  -0.000   0.000
   43        0.001   0.001   0.000   0.002
   44        0.001  -0.000  -0.000   0.000
   45        0.000   0.000  -0.000   0.000
   46        0.001   0.001   0.000   0.002
   47        0.001  -0.000  -0.000   0.000
   48        0.000   0.000  -0.000   0.000
   49        0.000   0.000  -0.000   0.000
   50        0.000   0.000  -0.000   0.000
   51        0.000   0.000  -0.000   0.000
   52        0.000   0.000  -0.000   0.000
   53        0.000   0.000  -0.000   0.000
   54        0.000   0.000  -0.000   0.000
   55        0.000   0.000  -0.000   0.000
   56        0.001  -0.000  -0.000   0.001
   57        0.000   0.000  -0.000   0.000
   58        0.000   0.000  -0.000   0.000
   59        0.001  -0.000  -0.000   0.001
   60        0.000   0.000  -0.000   0.000
   61        0.000   0.000  -0.000   0.000
   62        0.001  -0.000  -0.000   0.001
   63        0.000   0.000  -0.000   0.000
   64        0.000   0.000  -0.000   0.000
   65        0.000   0.000  -0.000   0.000
   66        0.000   0.000  -0.000   0.000
   67        0.000   0.000  -0.000   0.000
   68        0.001  -0.000  -0.000   0.001
   69        0.000   0.000  -0.000   0.000
   70        0.000   0.000  -0.000   0.000
   71        0.001   0.000  -0.000   0.001
   72        0.000   0.000  -0.000   0.000
   73        0.000   0.000  -0.000   0.000
   74        0.001  -0.000  -0.000   0.001
   75        0.000   0.000  -0.000   0.000
   76        0.001   0.001   0.001   0.003
   77       -0.005  -0.008  -0.000  -0.013
   78        0.000   0.000  -0.000   0.000
   79        0.001   0.001   0.000   0.003
   80       -0.005  -0.008  -0.000  -0.013
   81        0.000   0.000  -0.000   0.000
   82        0.000   0.000  -0.000   0.000
   83        0.001  -0.000  -0.000   0.001
   84        0.000   0.000  -0.000   0.000
   85        0.000   0.000  -0.000   0.000
   86        0.000   0.000  -0.000   0.000
   87        0.000   0.000  -0.000   0.000
   88        0.000   0.000  -0.000   0.000
   89        0.000   0.000  -0.000   0.000
   90        0.000   0.000  -0.000   0.000
   91        0.001   0.001   0.001   0.003
   92       -0.005  -0.008  -0.000  -0.013
   93        0.000   0.000  -0.000   0.000
   94        0.000   0.000  -0.000   0.000
   95        0.000   0.000  -0.000   0.000
   96        0.000  -0.000   0.000   0.000
   97        0.000   0.000   0.000   0.000
   98        0.000  -0.000   0.000   0.000
   99        0.000  -0.000   0.000   0.000
  100        0.000  -0.000   0.000   0.000
  101        0.000  -0.000   0.000   0.000
  102        0.000  -0.000   0.000   0.000
  103        0.000   0.000   0.000   0.000
  104        0.000  -0.000   0.000   0.000
  105        0.000  -0.000   0.000   0.000
  106        0.000  -0.000   0.000   0.000
  107        0.000  -0.000   0.000   0.000
  108        0.000  -0.000   0.000   0.000
  109        0.000  -0.000   0.000   0.000
  110        0.000  -0.000   0.000   0.000
  111        0.000  -0.000   0.000   0.000
  112        0.000  -0.003   0.000  -0.003
  113        0.000  -0.000   0.000  -0.000
  114        0.000  -0.000   0.000   0.000
  115        0.000  -0.003   0.000  -0.003
  116        0.000  -0.000   0.000  -0.000
  117        0.000  -0.000   0.000   0.000
  118        0.000  -0.000   0.000   0.000
  119        0.000  -0.000   0.000   0.000
  120        0.000  -0.000   0.000   0.000
  121        0.000   0.000   0.000   0.000
  122        0.000  -0.000   0.000   0.000
  123        0.000  -0.000   0.000   0.000
  124        0.000  -0.003   0.000  -0.003
  125        0.000  -0.000   0.000  -0.000
  126        0.000  -0.002   0.000  -0.001
  127        0.000  -0.000   0.000   0.000
  128        0.000  -0.000   0.000   0.000
  129        0.000  -0.003   0.000  -0.003
  130        0.000  -0.000   0.000  -0.000
  131        0.000  -0.000   0.000   0.000
  132        0.000  -0.000   0.000   0.000
  133        0.000  -0.000   0.000   0.000
  134        0.000  -0.000   0.000   0.000
  135        0.000  -0.000   0.000   0.000
  136        0.000  -0.000   0.000   0.000
  137        0.000  -0.000   0.000   0.000
  138        0.000  -0.003   0.000  -0.003
  139        0.000  -0.000   0.000  -0.000
  140        0.000  -0.000   0.000   0.000
  141        0.000  -0.003   0.000  -0.003
  142        0.000  -0.000   0.000  -0.000
  143        0.000  -0.000   0.000   0.000
  144        0.000  -0.000   0.000   0.000
  145        0.000  -0.000   0.000   0.000
  146        0.000  -0.000   0.000   0.000
  147        0.000  -0.000   0.000   0.000
  148        0.000  -0.000   0.000   0.000
  149        0.000  -0.000   0.000   0.000
  150        0.000  -0.001   0.000  -0.000
  151        0.000  -0.000   0.000  -0.000
  152        0.000  -0.000   0.000   0.000
  153        0.000  -0.001   0.000  -0.000
  154        0.000  -0.000   0.000  -0.000
  155        0.000  -0.000   0.000   0.000
  156        0.000  -0.001   0.000  -0.000
  157        0.000  -0.000   0.000  -0.000
  158        0.000  -0.000   0.000   0.000
  159        0.000   0.000   0.000   0.000
  160        0.000  -0.000   0.000  -0.000
  161        0.000  -0.000   0.000   0.000
  162        0.000  -0.001   0.000  -0.000
  163        0.000  -0.000   0.000  -0.000
  164        0.000  -0.000   0.000   0.000
  165        0.000  -0.000   0.000   0.000
  166        0.000  -0.000   0.000   0.000
  167        0.000  -0.000   0.000   0.000
  168        0.000  -0.001   0.000  -0.000
  169        0.000  -0.000   0.000  -0.000
  170        0.000  -0.000   0.000   0.000
  171       -0.000  -0.000   0.000  -0.001
  172       -0.000  -0.007   0.000  -0.007
  173        0.000  -0.000   0.000   0.000
  174       -0.000  -0.001   0.000  -0.001
  175       -0.000  -0.007   0.000  -0.007
  176        0.000  -0.000   0.000   0.000
  177        0.000  -0.001   0.000  -0.000
  178        0.000  -0.000   0.000  -0.000
  179        0.000  -0.000   0.000   0.000
  180        0.000  -0.000   0.000   0.000
  181        0.000  -0.000   0.000   0.000
  182        0.000  -0.000   0.000   0.000
  183        0.000   0.000   0.000   0.000
  184        0.000  -0.000   0.000  -0.000
  185        0.000  -0.000   0.000   0.000
  186       -0.000  -0.000   0.000  -0.001
  187       -0.000  -0.007   0.000  -0.007
  188        0.000  -0.000   0.000   0.000
  189        0.000   0.000   0.000   0.000
  190        0.000  -0.000   0.000  -0.000
  191        0.019   0.010   1.880   1.910
--------------------------------------------------
tot          0.080  -0.064   1.877   1.894
 

 total amount of memory used by VASP MPI-rank0   143457. kBytes
=======================================================================

   base      :      30000. kBytes
   nonlr-proj:       8620. kBytes
   fftplans  :       2267. kBytes
   grid      :       5113. kBytes
   one-center:        373. kBytes
   HF        :        129. kBytes
   wavefun   :       7416. kBytes
   fock_wrk  :      89539. kBytes
 
  
  
 General timing and accounting informations for this job:
 ========================================================
  
                  Total CPU time used (sec):    35416.430
                            User time (sec):    35375.364
                          System time (sec):       41.065
                         Elapsed time (sec):    35803.420
  
                   Maximum memory used (kb):      712912.
                   Average memory used (kb):          N/A
  
                          Minor page faults:      9236300
                          Major page faults:         2235
                 Voluntary context switches:        26632
