  191  191    1    2
  0.1195271E+02  0.1299435E-08  0.1299435E-08  0.1561204E-08  0.5000000E-15
  1.000000000000000E-004
  CAR 
 zno                                     
   1722      1   1344
 
  0.0000000E+00  0.0000000E+00  0.0000000E+00  0.1000000E+01
      1        -60.813554      -59.634520   1.000000   1.000000
      2        -35.103781      -33.870978   1.000000   1.000000
      3        -35.103726      -33.869971   1.000000   1.000000
      4        -35.117356      -33.200593   1.000000   1.000000
      5        -21.581301      -21.477618   1.000000   1.000000
      6        -21.289920      -20.892310   1.000000   1.000000
      7        -21.288965      -21.176001   1.000000   1.000000
      8        -20.961851      -21.175055   1.000000   1.000000
      9        -20.735699      -20.717082   1.000000   1.000000
     10        -20.663760      -20.638922   1.000000   1.000000
     11        -20.693152      -20.618079   1.000000   1.000000
     12        -20.688820      -20.618739   1.000000   1.000000
     13        -20.528838      -20.502023   1.000000   1.000000
     14        -20.560117      -20.466133   1.000000   1.000000
     15        -20.472633      -20.465214   1.000000   1.000000
     16        -20.459843      -20.468542   1.000000   1.000000
     17        -20.797018      -20.701644   1.000000   1.000000
     18        -20.806010      -20.689810   1.000000   1.000000
     19        -20.502609      -20.483669   1.000000   1.000000
     20        -20.422511      -20.446664   1.000000   1.000000
     21        -20.410231      -20.400202   1.000000   1.000000
     22        -20.510408      -20.390177   1.000000   1.000000
     23        -20.484056      -20.391590   1.000000   1.000000
     24        -20.257608      -20.260154   1.000000   1.000000
     25        -20.395818      -20.410869   1.000000   1.000000
     26        -20.426270      -20.421497   1.000000   1.000000
     27        -20.299319      -20.303292   1.000000   1.000000
     28        -20.305545      -20.273046   1.000000   1.000000
     29        -20.307141      -20.302395   1.000000   1.000000
     30        -20.254994      -20.253328   1.000000   1.000000
     31        -20.227096      -20.227892   1.000000   1.000000
     32        -20.226461      -20.226225   1.000000   1.000000
     33        -20.204213      -20.210345   1.000000   1.000000
     34        -20.225502      -20.230653   1.000000   1.000000
     35        -20.208458      -20.209529   1.000000   1.000000
     36        -20.118819      -20.106776   1.000000   1.000000
     37        -20.093016      -20.099520   1.000000   1.000000
     38        -20.092494      -20.087985   1.000000   1.000000
     39        -20.126387      -20.126111   1.000000   1.000000
     40        -20.083098      -20.096946   1.000000   1.000000
     41        -20.088853      -20.081334   1.000000   1.000000
     42        -20.054864      -20.041269   1.000000   1.000000
     43        -20.168799      -20.059299   1.000000   1.000000
     44        -20.209169      -20.035574   1.000000   1.000000
     45        -20.050523      -20.025260   1.000000   1.000000
     46        -20.030127      -20.179088   1.000000   1.000000
     47        -20.139594      -20.169544   1.000000   1.000000
     48        -20.029048      -20.032025   1.000000   1.000000
     49        -19.993616      -20.170626   1.000000   1.000000
     50        -19.993825      -20.050096   1.000000   1.000000
     51        -19.983293      -20.000829   1.000000   1.000000
     52        -19.980493      -19.948313   1.000000   1.000000
     53        -19.938380      -19.942214   1.000000   1.000000
     54        -19.994993      -19.985766   1.000000   1.000000
     55        -20.022131      -19.996732   1.000000   1.000000
     56        -20.248836      -19.977991   1.000000   1.000000
     57        -19.977760      -19.998161   1.000000   1.000000
     58        -19.973528      -20.283161   1.000000   1.000000
     59        -19.937993      -19.916500   1.000000   1.000000
     60        -20.159027      -20.206483   1.000000   1.000000
     61        -20.149143      -20.156659   1.000000   1.000000
     62        -19.971116      -19.975512   1.000000   1.000000
     63        -20.024003      -20.009871   1.000000   1.000000
     64        -20.003013      -19.984207   1.000000   1.000000
     65        -19.929980      -19.937232   1.000000   1.000000
     66        -19.906515      -19.908695   1.000000   1.000000
     67        -19.925436      -19.930333   1.000000   1.000000
     68        -19.884562      -19.880711   1.000000   1.000000
     69        -19.872534      -19.868986   1.000000   1.000000
     70        -19.928884      -19.861859   1.000000   1.000000
     71        -19.854521      -19.873941   1.000000   1.000000
     72        -19.892868      -19.864730   1.000000   1.000000
     73        -19.829901      -19.787724   1.000000   1.000000
     74        -19.799341      -19.784155   1.000000   1.000000
     75        -19.867892      -19.880872   1.000000   1.000000
     76        -19.775830      -19.849338   1.000000   1.000000
     77        -19.840069      -19.778969   1.000000   1.000000
     78        -19.857834      -19.831411   1.000000   1.000000
     79        -19.832679      -19.823770   1.000000   1.000000
     80        -19.834513      -19.979161   1.000000   1.000000
     81        -19.897353      -19.936067   1.000000   1.000000
     82        -19.856298      -19.899483   1.000000   1.000000
     83        -19.792070      -19.799339   1.000000   1.000000
     84        -19.774025      -19.798379   1.000000   1.000000
     85        -19.757804      -19.765828   1.000000   1.000000
     86        -19.842916      -19.859122   1.000000   1.000000
     87        -19.813088      -19.840058   1.000000   1.000000
     88        -19.766407      -19.774836   1.000000   1.000000
     89        -19.767507      -19.772593   1.000000   1.000000
     90        -19.764380      -19.813426   1.000000   1.000000
     91        -19.722865      -19.729784   1.000000   1.000000
     92        -19.722182      -19.728691   1.000000   1.000000
     93        -19.722150      -19.728700   1.000000   1.000000
     94        -19.709556      -19.715815   1.000000   1.000000
     95        -19.678407      -19.685446   1.000000   1.000000
     96        -19.678368      -19.685332   1.000000   1.000000
     97        -19.665947      -19.673088   1.000000   1.000000
     98        -19.666427      -19.673559   1.000000   1.000000
     99        -19.666370      -19.673530   1.000000   1.000000
    100         -8.857851       -8.613820   1.000000   1.000000
    101         -8.697031       -8.458169   1.000000   1.000000
    102         -8.483245       -8.755471   1.000000   1.000000
    103         -8.809118       -8.755684   1.000000   1.000000
    104         -8.808681       -8.721770   1.000000   1.000000
    105         -8.329121       -8.194266   1.000000   1.000000
    106         -8.724624       -8.700214   1.000000   1.000000
    107         -8.596993       -8.556074   1.000000   1.000000
    108         -8.657993       -8.169731   1.000000   1.000000
    109         -8.519214       -8.648393   1.000000   1.000000
    110         -8.597777       -8.579697   1.000000   1.000000
    111         -8.042580       -8.128601   1.000000   1.000000
    112         -8.524165       -8.491017   1.000000   1.000000
    113         -8.565387       -8.508548   1.000000   1.000000
    114         -8.637995       -8.629651   1.000000   1.000000
    115         -8.659977       -8.641079   1.000000   1.000000
    116         -8.153523       -8.053268   1.000000   1.000000
    117         -8.208640       -8.054534   1.000000   1.000000
    118         -8.198199       -8.090100   1.000000   1.000000
    119         -8.044876       -8.036811   1.000000   1.000000
    120         -8.002591       -7.976239   1.000000   1.000000
    121         -8.000387       -8.016580   1.000000   1.000000
    122         -8.768254       -8.130354   1.000000   1.000000
    123         -8.037589       -8.021753   1.000000   1.000000
    124         -7.965574       -7.907666   1.000000   1.000000
    125         -7.968054       -7.950386   1.000000   1.000000
    126         -7.952802       -7.997799   1.000000   1.000000
    127         -7.986546       -7.940648   1.000000   1.000000
    128         -7.933585       -7.936895   1.000000   1.000000
    129         -8.031956       -8.403046   1.000000   1.000000
    130         -7.941990       -7.977538   1.000000   1.000000
    131         -7.912642       -7.897420   1.000000   1.000000
    132         -7.876727       -7.897227   1.000000   1.000000
    133         -7.910925       -7.875719   1.000000   1.000000
    134         -8.135661       -7.895527   1.000000   1.000000
    135         -7.853924       -8.433107   1.000000   1.000000
    136         -7.873066       -7.865818   1.000000   1.000000
    137         -7.855013       -7.865414   1.000000   1.000000
    138         -8.130399       -7.843893   1.000000   1.000000
    139         -7.868773       -7.822207   1.000000   1.000000
    140         -7.899452       -8.094109   1.000000   1.000000
    141         -7.827507       -7.837698   1.000000   1.000000
    142         -7.848831       -7.843531   1.000000   1.000000
    143         -7.827015       -7.801862   1.000000   1.000000
    144         -7.820899       -7.786394   1.000000   1.000000
    145         -7.809076       -7.821519   1.000000   1.000000
    146         -7.811718       -7.785762   1.000000   1.000000
    147         -7.791167       -7.781212   1.000000   1.000000
    148         -7.786355       -7.769804   1.000000   1.000000
    149         -7.820091       -7.819669   1.000000   1.000000
    150         -7.786953       -7.772367   1.000000   1.000000
    151         -7.790941       -7.763950   1.000000   1.000000
    152         -7.781672       -7.752080   1.000000   1.000000
    153         -7.742704       -7.732241   1.000000   1.000000
    154         -7.761451       -7.739869   1.000000   1.000000
    155         -7.714639       -7.715562   1.000000   1.000000
    156         -7.754283       -7.749954   1.000000   1.000000
    157         -7.770104       -7.807807   1.000000   1.000000
    158         -7.784047       -7.776373   1.000000   1.000000
    159         -7.772080       -7.805944   1.000000   1.000000
    160         -7.764000       -7.777515   1.000000   1.000000
    161         -7.752599       -7.727544   1.000000   1.000000
    162         -7.730733       -7.714020   1.000000   1.000000
    163         -7.704708       -7.712317   1.000000   1.000000
    164         -7.727692       -7.711996   1.000000   1.000000
    165         -7.717334       -7.702488   1.000000   1.000000
    166         -7.721974       -7.725475   1.000000   1.000000
    167         -7.724272       -7.684445   1.000000   1.000000
    168         -7.711495       -7.699921   1.000000   1.000000
    169         -7.703540       -7.671040   1.000000   1.000000
    170         -7.695070       -7.759650   1.000000   1.000000
    171         -7.699862       -7.745059   1.000000   1.000000
    172         -7.667451       -7.666534   1.000000   1.000000
    173         -7.660056       -7.665012   1.000000   1.000000
    174         -7.664499       -7.696364   1.000000   1.000000
    175         -7.664166       -7.657171   1.000000   1.000000
    176         -7.648253       -7.656655   1.000000   1.000000
    177         -7.645903       -7.643599   1.000000   1.000000
    178         -7.632983       -7.652449   1.000000   1.000000
    179         -7.656265       -7.629680   1.000000   1.000000
    180         -7.625211       -7.640738   1.000000   1.000000
    181         -7.656959       -7.639273   1.000000   1.000000
    182         -7.638183       -7.639822   1.000000   1.000000
    183         -7.620441       -7.624932   1.000000   1.000000
    184         -7.635444       -7.624805   1.000000   1.000000
    185         -7.625462       -7.627877   1.000000   1.000000
    186         -7.677277       -7.611043   1.000000   1.000000
    187         -7.601765       -7.686296   1.000000   1.000000
    188         -7.629290       -7.612646   1.000000   1.000000
    189         -7.619762       -7.598878   1.000000   1.000000
    190         -7.611797       -7.615146   1.000000   1.000000
    191         -7.607938       -7.616248   1.000000   1.000000
    192         -7.591389       -7.608066   1.000000   1.000000
    193         -7.609295       -7.599556   1.000000   1.000000
    194         -7.600569       -7.599257   1.000000   1.000000
    195         -7.582892       -7.584779   1.000000   1.000000
    196         -7.581257       -7.597225   1.000000   1.000000
    197         -7.598550       -7.581240   1.000000   1.000000
    198         -7.575083       -7.580565   1.000000   1.000000
    199         -7.594899       -7.580639   1.000000   1.000000
    200         -7.581620       -7.575778   1.000000   1.000000
    201         -7.575737       -7.562540   1.000000   1.000000
    202         -7.562690       -7.537198   1.000000   1.000000
    203         -7.562741       -7.541842   1.000000   1.000000
    204         -7.560067       -7.574276   1.000000   1.000000
    205         -7.549904       -7.560919   1.000000   1.000000
    206         -7.554377       -7.553397   1.000000   1.000000
    207         -7.528942       -7.545001   1.000000   1.000000
    208         -7.529144       -7.554097   1.000000   1.000000
    209         -7.547060       -7.558511   1.000000   1.000000
    210         -7.550046       -7.529967   1.000000   1.000000
    211         -7.540942       -7.521274   1.000000   1.000000
    212         -7.532968       -7.507198   1.000000   1.000000
    213         -7.512554       -7.519766   1.000000   1.000000
    214         -7.517758       -7.508079   1.000000   1.000000
    215         -7.520331       -7.545602   1.000000   1.000000
    216         -7.520423       -7.519899   1.000000   1.000000
    217         -7.507798       -7.518513   1.000000   1.000000
    218         -7.506255       -7.503039   1.000000   1.000000
    219         -7.506165       -7.503729   1.000000   1.000000
    220         -7.492882       -7.503642   1.000000   1.000000
    221         -7.489898       -7.494651   1.000000   1.000000
    222         -7.481338       -7.479331   1.000000   1.000000
    223         -7.463423       -7.491976   1.000000   1.000000
    224         -7.530245       -7.519997   1.000000   1.000000
    225         -7.500807       -7.501598   1.000000   1.000000
    226         -7.502687       -7.495997   1.000000   1.000000
    227         -7.501778       -7.488495   1.000000   1.000000
    228         -7.459856       -7.471452   1.000000   1.000000
    229         -7.475933       -7.459308   1.000000   1.000000
    230         -7.457119       -7.455408   1.000000   1.000000
    231         -7.454701       -7.455801   1.000000   1.000000
    232         -7.441993       -7.442637   1.000000   1.000000
    233         -7.499100       -7.499227   1.000000   1.000000
    234         -7.487932       -7.476425   1.000000   1.000000
    235         -7.467524       -7.456691   1.000000   1.000000
    236         -7.469747       -7.484218   1.000000   1.000000
    237         -7.484797       -7.440952   1.000000   1.000000
    238         -7.452849       -7.420217   1.000000   1.000000
    239         -7.482685       -7.452504   1.000000   1.000000
    240         -7.454044       -7.439032   1.000000   1.000000
    241         -7.426015       -7.466049   1.000000   1.000000
    242         -7.430428       -7.447906   1.000000   1.000000
    243         -7.439416       -7.481803   1.000000   1.000000
    244         -7.427059       -7.438173   1.000000   1.000000
    245         -7.438597       -7.425576   1.000000   1.000000
    246         -7.425296       -7.423194   1.000000   1.000000
    247         -7.417800       -7.416638   1.000000   1.000000
    248         -7.417673       -7.404969   1.000000   1.000000
    249         -7.405823       -7.397606   1.000000   1.000000
    250         -7.412609       -7.404180   1.000000   1.000000
    251         -7.399490       -7.410183   1.000000   1.000000
    252         -7.405552       -7.396176   1.000000   1.000000
    253         -7.396849       -7.386646   1.000000   1.000000
    254         -7.396857       -7.396262   1.000000   1.000000
    255         -7.388163       -7.424442   1.000000   1.000000
    256         -7.435344       -7.386615   1.000000   1.000000
    257         -7.388126       -7.384646   1.000000   1.000000
    258         -7.385509       -7.423557   1.000000   1.000000
    259         -7.373583       -7.384553   1.000000   1.000000
    260         -7.367876       -7.369854   1.000000   1.000000
    261         -7.382395       -7.368697   1.000000   1.000000
    262         -7.352969       -7.363624   1.000000   1.000000
    263         -7.363928       -7.348997   1.000000   1.000000
    264         -7.379164       -7.362820   1.000000   1.000000
    265         -7.369839       -7.380603   1.000000   1.000000
    266         -7.349299       -7.335652   1.000000   1.000000
    267         -7.346206       -7.346856   1.000000   1.000000
    268         -7.334642       -7.360591   1.000000   1.000000
    269         -7.330748       -7.345341   1.000000   1.000000
    270         -7.335081       -7.331602   1.000000   1.000000
    271         -7.360942       -7.334415   1.000000   1.000000
    272         -7.338765       -7.342827   1.000000   1.000000
    273         -7.316445       -7.323216   1.000000   1.000000
    274         -7.320058       -7.317701   1.000000   1.000000
    275         -7.314176       -7.312390   1.000000   1.000000
    276         -7.313226       -7.299079   1.000000   1.000000
    277         -7.340116       -7.325290   1.000000   1.000000
    278         -7.328224       -7.326901   1.000000   1.000000
    279         -7.315134       -7.289716   1.000000   1.000000
    280         -7.292003       -7.294626   1.000000   1.000000
    281         -7.295767       -7.282702   1.000000   1.000000
    282         -7.282185       -7.287609   1.000000   1.000000
    283         -7.287625       -7.312952   1.000000   1.000000
    284         -7.287513       -7.303379   1.000000   1.000000
    285         -7.286638       -7.288014   1.000000   1.000000
    286         -7.284581       -7.273883   1.000000   1.000000
    287         -7.288363       -7.275981   1.000000   1.000000
    288         -7.277270       -7.283553   1.000000   1.000000
    289         -7.277276       -7.277042   1.000000   1.000000
    290         -7.271015       -7.269769   1.000000   1.000000
    291         -7.271261       -7.284064   1.000000   1.000000
    292         -7.269893       -7.265794   1.000000   1.000000
    293         -7.266877       -7.269459   1.000000   1.000000
    294         -7.266897       -7.265502   1.000000   1.000000
    295         -7.264095       -7.263197   1.000000   1.000000
    296         -7.264101       -7.263175   1.000000   1.000000
    297         -7.262633       -7.261652   1.000000   1.000000
    298         -7.234910       -7.246675   1.000000   1.000000
    299         -7.250542       -7.259342   1.000000   1.000000
    300         -7.257791       -7.244624   1.000000   1.000000
    301         -7.245030       -7.244162   1.000000   1.000000
    302         -7.245222       -7.240610   1.000000   1.000000
    303         -7.226990       -7.243941   1.000000   1.000000
    304         -7.229908       -7.237328   1.000000   1.000000
    305         -7.246592       -7.230617   1.000000   1.000000
    306         -7.225843       -7.225540   1.000000   1.000000
    307         -7.216778       -7.226213   1.000000   1.000000
    308         -7.235216       -7.186514   1.000000   1.000000
    309         -7.216099       -7.202107   1.000000   1.000000
    310         -7.189686       -7.232807   1.000000   1.000000
    311         -7.204571       -7.202529   1.000000   1.000000
    312         -7.201680       -7.185110   1.000000   1.000000
    313         -7.199744       -7.203780   1.000000   1.000000
    314         -7.197251       -7.224060   1.000000   1.000000
    315         -7.195369       -7.212513   1.000000   1.000000
    316         -7.237448       -7.214032   1.000000   1.000000
    317         -7.239914       -7.195482   1.000000   1.000000
    318         -7.183885       -7.182585   1.000000   1.000000
    319         -7.182430       -7.195989   1.000000   1.000000
    320         -7.185747       -7.180338   1.000000   1.000000
    321         -7.169454       -7.164856   1.000000   1.000000
    322         -7.165282       -7.152183   1.000000   1.000000
    323         -7.164924       -7.162655   1.000000   1.000000
    324         -7.150488       -7.144682   1.000000   1.000000
    325         -7.181339       -7.150383   1.000000   1.000000
    326         -7.151415       -7.150668   1.000000   1.000000
    327         -7.113660       -7.129797   1.000000   1.000000
    328         -7.137695       -7.149571   1.000000   1.000000
    329         -7.148499       -7.130940   1.000000   1.000000
    330         -7.151023       -7.161038   1.000000   1.000000
    331         -7.149097       -7.179914   1.000000   1.000000
    332         -7.134894       -7.135863   1.000000   1.000000
    333         -7.140403       -7.135653   1.000000   1.000000
    334         -7.146291       -7.149322   1.000000   1.000000
    335         -7.132441       -7.122703   1.000000   1.000000
    336         -7.133449       -7.094398   1.000000   1.000000
    337         -7.105161       -7.147028   1.000000   1.000000
    338         -7.102100       -7.105089   1.000000   1.000000
    339         -7.091691       -7.104374   1.000000   1.000000
    340         -7.100857       -7.101016   1.000000   1.000000
    341         -7.142373       -7.133764   1.000000   1.000000
    342         -7.077642       -7.091094   1.000000   1.000000
    343         -7.077098       -7.091077   1.000000   1.000000
    344         -7.063762       -7.063065   1.000000   1.000000
    345         -7.026957       -7.075583   1.000000   1.000000
    346         -7.055595       -7.075021   1.000000   1.000000
    347         -7.070381       -7.046854   1.000000   1.000000
    348         -7.037040       -7.056126   1.000000   1.000000
    349         -7.033160       -7.032415   1.000000   1.000000
    350         -7.074541       -7.083248   1.000000   1.000000
    351         -7.072676       -7.033245   1.000000   1.000000
    352         -7.052927       -7.067864   1.000000   1.000000
    353         -7.079802       -7.080141   1.000000   1.000000
    354         -7.030727       -7.013205   1.000000   1.000000
    355         -7.015067       -7.002971   1.000000   1.000000
    356         -7.083813       -7.070364   1.000000   1.000000
    357         -7.119092       -6.982484   1.000000   1.000000
    358         -7.088931       -7.069216   1.000000   1.000000
    359         -6.980391       -7.048703   1.000000   1.000000
    360         -7.039903       -7.048963   1.000000   1.000000
    361         -7.041226       -7.028732   1.000000   1.000000
    362         -6.979362       -7.026912   1.000000   1.000000
    363         -7.010922       -7.007122   1.000000   1.000000
    364         -7.014235       -7.017732   1.000000   1.000000
    365         -6.968749       -6.994890   1.000000   1.000000
    366         -7.027933       -6.984524   1.000000   1.000000
    367         -6.953246       -6.959120   1.000000   1.000000
    368         -6.956858       -6.956258   1.000000   1.000000
    369         -6.995119       -6.967152   1.000000   1.000000
    370         -6.987013       -6.978170   1.000000   1.000000
    371         -6.970852       -6.946210   1.000000   1.000000
    372         -6.987325       -7.009415   1.000000   1.000000
    373         -6.957939       -6.947858   1.000000   1.000000
    374         -6.935994       -6.928487   1.000000   1.000000
    375         -6.955094       -6.963415   1.000000   1.000000
    376         -6.944944       -6.953712   1.000000   1.000000
    377         -6.940769       -6.942414   1.000000   1.000000
    378         -6.918296       -6.917824   1.000000   1.000000
    379         -6.925837       -6.912309   1.000000   1.000000
    380         -6.926555       -6.924946   1.000000   1.000000
    381         -6.911954       -6.890361   1.000000   1.000000
    382         -6.893306       -6.923395   1.000000   1.000000
    383         -6.885441       -6.911957   1.000000   1.000000
    384         -6.903309       -6.893000   1.000000   1.000000
    385         -6.889882       -6.883159   1.000000   1.000000
    386         -6.883748       -6.880984   1.000000   1.000000
    387         -6.880922       -6.881589   1.000000   1.000000
    388         -6.876922       -6.877494   1.000000   1.000000
    389         -6.909071       -6.899339   1.000000   1.000000
    390         -6.860414       -6.877378   1.000000   1.000000
    391         -6.880662       -6.855863   1.000000   1.000000
    392         -6.868212       -6.881773   1.000000   1.000000
    393         -6.857196       -6.848410   1.000000   1.000000
    394         -6.848801       -6.860571   1.000000   1.000000
    395         -6.856409       -6.842191   1.000000   1.000000
    396         -6.874986       -6.835326   1.000000   1.000000
    397         -6.846143       -6.857193   1.000000   1.000000
    398         -6.837060       -6.864278   1.000000   1.000000
    399         -6.835850       -6.824158   1.000000   1.000000
    400         -6.844915       -6.842022   1.000000   1.000000
    401         -6.829215       -6.834662   1.000000   1.000000
    402         -6.823775       -6.814349   1.000000   1.000000
    403         -6.814321       -6.823270   1.000000   1.000000
    404         -6.823859       -6.819641   1.000000   1.000000
    405         -6.822129       -6.825163   1.000000   1.000000
    406         -6.799052       -6.795337   1.000000   1.000000
    407         -6.789207       -6.797181   1.000000   1.000000
    408         -6.797239       -6.796606   1.000000   1.000000
    409         -6.795181       -6.787549   1.000000   1.000000
    410         -6.812127       -6.776158   1.000000   1.000000
    411         -6.784880       -6.781509   1.000000   1.000000
    412         -6.784573       -6.782592   1.000000   1.000000
    413         -6.781480       -6.768158   1.000000   1.000000
    414         -6.780208       -6.779299   1.000000   1.000000
    415         -6.750178       -6.755029   1.000000   1.000000
    416         -6.808473       -6.810641   1.000000   1.000000
    417         -6.775001       -6.808138   1.000000   1.000000
    418         -6.765734       -6.783341   1.000000   1.000000
    419         -6.783693       -6.776519   1.000000   1.000000
    420         -6.755865       -6.755918   1.000000   1.000000
    421         -6.753466       -6.764608   1.000000   1.000000
    422         -6.762443       -6.742540   1.000000   1.000000
    423         -6.741816       -6.710338   1.000000   1.000000
    424         -6.736611       -6.743415   1.000000   1.000000
    425         -6.738981       -6.737636   1.000000   1.000000
    426         -6.698992       -6.708718   1.000000   1.000000
    427         -6.696923       -6.692809   1.000000   1.000000
    428         -6.734823       -6.735326   1.000000   1.000000
    429         -6.704584       -6.723842   1.000000   1.000000
    430         -6.723181       -6.732182   1.000000   1.000000
    431         -6.690287       -6.687790   1.000000   1.000000
    432         -6.724286       -6.720327   1.000000   1.000000
    433         -6.690599       -6.688425   1.000000   1.000000
    434         -6.692152       -6.688234   1.000000   1.000000
    435         -6.681689       -6.689660   1.000000   1.000000
    436         -6.701232       -6.689240   1.000000   1.000000
    437         -6.684973       -6.678996   1.000000   1.000000
    438         -6.676980       -6.670310   1.000000   1.000000
    439         -6.676950       -6.676516   1.000000   1.000000
    440         -6.666599       -6.659264   1.000000   1.000000
    441         -6.646296       -6.641905   1.000000   1.000000
    442         -6.627121       -6.637979   1.000000   1.000000
    443         -6.666490       -6.663166   1.000000   1.000000
    444         -6.663321       -6.672142   1.000000   1.000000
    445         -6.659616       -6.665666   1.000000   1.000000
    446         -6.656449       -6.657850   1.000000   1.000000
    447         -6.611646       -6.655345   1.000000   1.000000
    448         -6.621052       -6.585783   1.000000   1.000000
    449         -6.609509       -6.610435   1.000000   1.000000
    450         -6.608400       -6.611778   1.000000   1.000000
    451         -6.652312       -6.603719   1.000000   1.000000
    452         -6.619678       -6.608479   1.000000   1.000000
    453         -6.633633       -6.632010   1.000000   1.000000
    454         -6.650119       -6.620765   1.000000   1.000000
    455         -6.627542       -6.600336   1.000000   1.000000
    456         -6.629194       -6.632488   1.000000   1.000000
    457         -6.601834       -6.613689   1.000000   1.000000
    458         -6.660607       -6.659399   1.000000   1.000000
    459         -6.599638       -6.612600   1.000000   1.000000
    460         -6.612663       -6.614747   1.000000   1.000000
    461         -6.584902       -6.646379   1.000000   1.000000
    462         -6.554787       -6.552996   1.000000   1.000000
    463         -6.550125       -6.556004   1.000000   1.000000
    464         -6.584718       -6.583345   1.000000   1.000000