       N       E                     dE             d eps       ncg     rms          ort
SDA:   1    -0.121843437782E+04   -0.12184E+04   -0.16664E+01  1344   0.555E+01 0.000E+00
DMP:   2    -0.121934692334E+04   -0.91255E+00   -0.21743E+00  1344   0.493E+00 0.406E+00
DMP:   3    -0.121902872990E+04    0.31819E+00    0.17320E+00  1344   0.198E+01-0.448E+01
DMP:   4    -0.121827607654E+04    0.75265E+00   -0.21261E+00  1344   0.377E+01-0.537E+01
DMP:   5    -0.121769456458E+04    0.58151E+00   -0.63642E+00  1344   0.432E+01-0.385E+01
DMP:   6    -0.121759337685E+04    0.10119E+00   -0.11957E+01  1344   0.418E+01-0.337E+00
DMP:   7    -0.121817294906E+04   -0.57957E+00   -0.10067E+01  1344   0.283E+01 0.922E+00
DMP:   8    -0.121844422765E+04   -0.27128E+00   -0.59053E+00  1344   0.228E+01-0.542E+00
DMP:   9    -0.121789757401E+04    0.54665E+00   -0.62335E+00  1344   0.334E+01-0.222E+01
DMP:  10    -0.121704522780E+04    0.85235E+00   -0.12633E+01  1344   0.486E+01-0.114E+01
DMP:  11    -0.121722872306E+04   -0.18350E+00   -0.15007E+01  1344   0.445E+01 0.975E+00
DMP:  12    -0.121795697530E+04   -0.72825E+00   -0.11832E+01  1344   0.305E+01 0.158E+01
DMP:  13    -0.121853147710E+04   -0.57450E+00   -0.83147E+00  1344   0.194E+01 0.147E+01
DMP:  14    -0.121890088544E+04   -0.36941E+00   -0.49604E+00  1344   0.122E+01 0.767E+00
DMP:  15    -0.121902966788E+04   -0.12878E+00   -0.20753E+00  1344   0.977E+00-0.501E+00
DMP:  16    -0.121894899127E+04    0.80677E-01   -0.94926E-01  1344   0.112E+01-0.141E+01
DMP:  17    -0.121885506516E+04    0.93926E-01   -0.24405E+00  1344   0.127E+01-0.798E+00
DMP:  18    -0.121899295593E+04   -0.13789E+00   -0.30874E+00  1344   0.997E+00 0.561E-01
DMP:  19    -0.121921492146E+04   -0.22197E+00   -0.23169E+00  1344   0.590E+00 0.320E+00
DMP:  20    -0.121938007870E+04   -0.16516E+00   -0.13868E+00  1344   0.289E+00 0.303E+00
DMP:  21    -0.121946808021E+04   -0.88002E-01   -0.60542E-01  1344   0.132E+00 0.123E+00
DMP:  22    -0.121948921389E+04   -0.21134E-01   -0.54244E-02  1344   0.951E-01-0.135E+00
DMP:  23    -0.121946150902E+04    0.27705E-01    0.20281E-01  1344   0.145E+00-0.374E+00
DMP:  24    -0.121941825749E+04    0.43252E-01   -0.12549E-01  1344   0.222E+00-0.315E+00
DMP:  25    -0.121941989978E+04   -0.16423E-02   -0.57190E-01  1344   0.216E+00-0.437E-01
DMP:  26    -0.121946536672E+04   -0.45467E-01   -0.54112E-01  1344   0.134E+00 0.822E-01
DMP:  27    -0.121950686535E+04   -0.41499E-01   -0.32657E-01  1344   0.605E-01 0.848E-01
DMP:  28    -0.121952925711E+04   -0.22392E-01   -0.13782E-01  1344   0.211E-01 0.436E-01
DMP:  29    -0.121953555763E+04   -0.63005E-02   -0.14285E-02  1344   0.994E-02-0.909E-02
DMP:  30    -0.121953230578E+04    0.32519E-02    0.24835E-02  1344   0.164E-01-0.434E-01
DMP:  31    -0.121952779179E+04    0.45140E-02   -0.18541E-02  1344   0.243E-01-0.318E-01
DMP:  32    -0.121952891490E+04   -0.11231E-02   -0.64852E-02  1344   0.214E-01 0.419E-03
DMP:  33    -0.121953419992E+04   -0.52850E-02   -0.57876E-02  1344   0.116E-01 0.134E-01
DMP:  34    -0.121953850877E+04   -0.43088E-02   -0.28324E-02  1344   0.419E-02 0.922E-02
DMP:  35    -0.121954026887E+04   -0.17601E-02   -0.72947E-03  1344   0.116E-02 0.223E-02
DMP:  36    -0.121954047512E+04   -0.20625E-03   -0.53104E-04  1344   0.897E-03-0.126E-02
DMP:  37    -0.121954036087E+04    0.11425E-03   -0.14677E-03  1344   0.111E-02-0.109E-02
DMP:  38    -0.121954044603E+04   -0.85158E-04   -0.26883E-03  1344   0.854E-03 0.735E-04
DMP:  39    -0.121954065079E+04   -0.20476E-03   -0.21064E-03  1344   0.420E-03 0.494E-03
DMP:  40    -0.121954080050E+04   -0.14971E-03   -0.98664E-04  1344   0.157E-03 0.302E-03
DMP:  41    -0.121954086061E+04   -0.60101E-04   -0.31831E-04  1344   0.660E-04 0.704E-04
DMP:  42    -0.121954087487E+04   -0.14264E-04   -0.12551E-04  1344   0.486E-04-0.118E-04
DMP:  43    -0.121954088056E+04   -0.56919E-05   -0.11640E-04  1344   0.412E-04-0.417E-05
DMP:  44    -0.121954088832E+04   -0.77597E-05   -0.99712E-05  1344   0.260E-04 0.127E-04
DMP:  45    -0.121954089518E+04   -0.68619E-05   -0.57583E-05  1344   0.121E-04 0.124E-04
DMP:  46    -0.121954089886E+04   -0.36724E-05   -0.25606E-05  1344   0.555E-05 0.524E-05
DMP:  47    -0.121954090030E+04   -0.14473E-05   -0.10874E-05  1344   0.301E-05 0.108E-05
DMP:  48    -0.121954090088E+04   -0.57601E-06   -0.65147E-06  1344   0.206E-05 0.192E-06
   1 F= -.12195409E+04 E0= -.12195409E+04  d E =0.000000E+00  mag=     2.0000
