 vasp.6.4.2 20Jul23 (build Oct 07 2023 16:32:06) gamma-only                     
  
 executed on             bridges2 date 2023.12.22  20:51:19
 running  768 mpi-ranks, on    6 nodes
 distrk:  each k-point on  384 cores,    2 groups
 distr:  one band on NCORE=   4 cores,   96 groups


--------------------------------------------------------------------------------------------------------


 INCAR:
   SYSTEM = zno
   PREC = Normal
   ISTART = 1
   ICHARG = 1
   ISPIN = 2
   MAGMOM = 76*0.0 1*1.0 2*0.0 1*1.0 11*0.0 1*1.0 78*0.0 1*1.0 2*0.0 1*1.0 11*0.0 1*1.0 4*0.0 1*1.4
   FERWE = 861*1 1*1 1*0 481*0
   FERDO = 859*1 1*0 1*1 483*0
   NCORE = 4
   KPAR = 2
   NELECT = 1722
   ENCUT = 400
   NELM = 1500
   NELMIN = 4
   EDIFF = 1E-06
   LREAL = Auto
   EDIFFG = -1E-02
   NSW = 0
   IBRION = 2
   ISIF = 2
   ISYM = 3
   POTIM = 0.5
   ISMEAR = -2
   NBANDS = 1344
   LWAVE = T
   LCHARG = T
   LVHAR = T
   LVTOT = F
   LELF = F
   LORBIT = 11
   ALGO = Damped
   TIME = 0.3
   LHFCALC = T
   HFSCREEN = 0.2
   AEXX = 0.375
   GGA = PE
   LDIAG = .FALSE.

 POTCAR:    PAW_PBE Zn 06Sep2000                  
 POTCAR:    PAW_PBE O 08Apr2002                   
 POTCAR:    PAW_PBE Nb_sv 25May2007               
 -----------------------------------------------------------------------------
|                                                                             |
|           W    W    AA    RRRRR   N    N  II  N    N   GGGG   !!!           |
|           W    W   A  A   R    R  NN   N  II  NN   N  G    G  !!!           |
|           W    W  A    A  R    R  N N  N  II  N N  N  G       !!!           |
|           W WW W  AAAAAA  RRRRR   N  N N  II  N  N N  G  GGG   !            |
|           WW  WW  A    A  R   R   N   NN  II  N   NN  G    G                |
|           W    W  A    A  R    R  N    N  II  N    N   GGGG   !!!           |
|                                                                             |
|     For optimal performance we recommend to set                             |
|       NCORE = 2 up to number-of-cores-per-socket                            |
|     NCORE specifies how many cores store one orbital (NPAR=cpu/NCORE).      |
|     This setting can greatly improve the performance of VASP for DFT.       |
|     The default, NCORE=1 might be grossly inefficient on modern             |
|     multi-core architectures or massively parallel machines. Do your        |
|     own testing! More info at https://www.vasp.at/wiki/index.php/NCORE      |
|     Unfortunately you need to use the default for GW and RPA                |
|     calculations (for HF NCORE is supported but not extensively tested      |
|     yet).                                                                   |
|                                                                             |
 -----------------------------------------------------------------------------

 POTCAR:    PAW_PBE Zn 06Sep2000                  
   SHA256 =  501fddbd8274dd8e9725d4f3de27861d7f1e553a7e18441bc79fed8f346e7f23 Zn/POTCAR             
   COPYR  = (c) Copyright 06Sep2000 Georg Kresse                                                    
   COPYR  = This file is part of the software VASP. Any use, copying, and all other rights are regul
   COPYR  = If you do not have a valid VASP license, you may not use, copy or distribute this file. 
   VRHFIN =Zn: d10 p2                                                                               
   LEXCH  = PE                                                                                      
   EATOM  =  1748.8345 eV,  128.5357 Ry                                                             
                                                                                                    
   TITEL  = PAW_PBE Zn 06Sep2000                                                                    
   LULTRA =        F    use ultrasoft PP ?                                                          
   IUNSCR =        1    unscreen: 0-lin 1-nonlin 2-no                                               
   RPACOR =    2.000    partial core radius                                                         
   POMASS =   65.390; ZVAL   =   12.000    mass and valenz                                          
   RCORE  =    2.300    outmost cutoff radius                                                       
   RWIGS  =    2.400; RWIGS  =    1.270    wigner-seitz radius (au A)                               
   ENMAX  =  276.723; ENMIN  =  207.542 eV                                                          
   RCLOC  =    1.828    cutoff for local pot                                                        
   LCOR   =        T    correct aug charges                                                         
   LPAW   =        T    paw PP                                                                      
   EAUG   =  575.892                                                                                
   DEXC   =    0.000                                                                                
   RMAX   =    2.347    core radius for proj-oper                                                   
   RAUG   =    1.300    factor for augmentation sphere                                              
   RDEP   =    2.324    radius for radial grids                                                     
   RDEPT  =    1.788    core radius for aug-charge                                                  
                                                                                                    
   Atomic configuration                                                                             
    9 entries                                                                                       
     n  l   j            E        occ.                                                              
     1  0  0.50     -9524.6913   2.0000                                                             
     2  0  0.50     -1158.1882   2.0000                                                             
     2  1  1.50     -1003.8506   6.0000                                                             
     3  0  0.50      -129.2194   2.0000                                                             
     3  1  1.50       -83.3890   6.0000                                                             
     3  2  2.50       -10.1410  10.0000                                                             
     4  0  0.50        -5.9785   2.0000                                                             
     4  1  0.50        -4.0817   0.0000                                                             
     4  3  2.50        -1.3606   0.0000                                                             
   Description                                                                                      
     l       E           TYP  RCUT    TYP  RCUT                                                     
     2    -10.1410010     23  2.300                                                                 
     2    -11.5015836     23  2.300                                                                 
     0     -5.9785163     23  2.300                                                                 
     0      1.1858015     23  2.300                                                                 
     1     -2.7211652     23  2.300                                                                 
     1     13.2444212     23  2.300                                                                 
  local pseudopotential read in
  partial core-charges read in
  partial kinetic energy density read in
  atomic valenz-charges read in
  non local Contribution for L=           2  read in
    real space projection operators read in
  non local Contribution for L=           2  read in
    real space projection operators read in
  non local Contribution for L=           0  read in
    real space projection operators read in
  non local Contribution for L=           0  read in
    real space projection operators read in
  non local Contribution for L=           1  read in
    real space projection operators read in
  non local Contribution for L=           1  read in
    real space projection operators read in
    PAW grid and wavefunctions read in
 
   number of l-projection  operators is LMAX  =           6
   number of lm-projection operators is LMMAX =          18
 
 POTCAR:    PAW_PBE O 08Apr2002                   
   SHA256 =  818f92134a0a090dccd8ba1447fa70422a3b330e708bb4f08108d8ae51209ddf O/POTCAR              
   COPYR  = (c) Copyright 08Apr2002 Georg Kresse                                                    
   COPYR  = This file is part of the software VASP. Any use, copying, and all other rights are regul
   COPYR  = If you do not have a valid VASP license, you may not use, copy or distribute this file. 
   VRHFIN =O: s2p4                                                                                  
   LEXCH  = PE                                                                                      
   EATOM  =   432.3788 eV,   31.7789 Ry                                                             
                                                                                                    
   TITEL  = PAW_PBE O 08Apr2002                                                                     
   LULTRA =        F    use ultrasoft PP ?                                                          
   IUNSCR =        1    unscreen: 0-lin 1-nonlin 2-no                                               
   RPACOR =    1.200    partial core radius                                                         
   POMASS =   16.000; ZVAL   =    6.000    mass and valenz                                          
   RCORE  =    1.520    outmost cutoff radius                                                       
   RWIGS  =    1.550; RWIGS  =    0.820    wigner-seitz radius (au A)                               
   ENMAX  =  400.000; ENMIN  =  300.000 eV                                                          
   ICORE  =        2    local potential                                                             
   LCOR   =        T    correct aug charges                                                         
   LPAW   =        T    paw PP                                                                      
   EAUG   =  605.392                                                                                
   DEXC   =    0.000                                                                                
   RMAX   =    1.553    core radius for proj-oper                                                   
   RAUG   =    1.300    factor for augmentation sphere                                              
   RDEP   =    1.550    radius for radial grids                                                     
   RDEPT  =    1.329    core radius for aug-charge                                                  
                                                                                                    
   Atomic configuration                                                                             
    4 entries                                                                                       
     n  l   j            E        occ.                                                              
     1  0  0.50      -514.6923   2.0000                                                             
     2  0  0.50       -23.9615   2.0000                                                             
     2  1  0.50        -9.0305   4.0000                                                             
     3  2  1.50        -9.5241   0.0000                                                             
   Description                                                                                      
     l       E           TYP  RCUT    TYP  RCUT                                                     
     0    -23.9615318     23  1.200                                                                 
     0     -9.5240782     23  1.200                                                                 
     1     -9.0304911     23  1.520                                                                 
     1      8.1634956     23  1.520                                                                 
     2     -9.5240782      7  1.500                                                                 
  local pseudopotential read in
  partial core-charges read in
  partial kinetic energy density read in
  kinetic energy density of atom read in
  atomic valenz-charges read in
  non local Contribution for L=           0  read in
    real space projection operators read in
  non local Contribution for L=           0  read in
    real space projection operators read in
  non local Contribution for L=           1  read in
    real space projection operators read in
  non local Contribution for L=           1  read in
    real space projection operators read in
    PAW grid and wavefunctions read in
 
   number of l-projection  operators is LMAX  =           4
   number of lm-projection operators is LMMAX =           8
 
 POTCAR:    PAW_PBE Nb_sv 25May2007               
   SHA256 =  0e8fc07c9fcd1164cf2ade22d0399fd28f85e91cd773dfa6cf24839a48c95e24 Nb_sv/POTCAR          
   COPYR  = (c) Copyright 25May2007 Georg Kresse                                                    
   COPYR  = This file is part of the software VASP. Any use, copying, and all other rights are regul
   COPYR  = If you do not have a valid VASP license, you may not use, copy or distribute this file. 
   VRHFIN =Nb: 4p5s4d                                                                               
   LEXCH  = PE                                                                                      
   EATOM  =  1555.1913 eV,  114.3033 Ry                                                             
                                                                                                    
   TITEL  = PAW_PBE Nb_sv 25May2007                                                                 
   LULTRA =        F    use ultrasoft PP ?                                                          
   IUNSCR =        1    unscreen: 0-lin 1-nonlin 2-no                                               
   RPACOR =    1.800    partial core radius                                                         
   POMASS =   92.910; ZVAL   =   13.000    mass and valenz                                          
   RCORE  =    2.400    outmost cutoff radius                                                       
   RWIGS  =    2.400; RWIGS  =    1.270    wigner-seitz radius (au A)                               
   ENMAX  =  293.235; ENMIN  =  219.927 eV                                                          
   ICORE  =        3    local potential                                                             
   LCOR   =        T    correct aug charges                                                         
   LPAW   =        T    paw PP                                                                      
   EAUG   =  455.659                                                                                
   DEXC   =    0.000                                                                                
   RMAX   =    2.456    core radius for proj-oper                                                   
   RAUG   =    1.300    factor for augmentation sphere                                              
   RDEP   =    2.451    radius for radial grids                                                     
   RDEPT  =    1.956    core radius for aug-charge                                                  
                                                                                                    
   Atomic configuration                                                                             
   11 entries                                                                                       
     n  l   j            E        occ.                                                              
     1  0  0.50    -18805.2457   2.0000                                                             
     2  0  0.50     -2630.2869   2.0000                                                             
     2  1  1.50     -2348.4046   6.0000                                                             
     3  0  0.50      -438.8757   2.0000                                                             
     3  1  1.50      -346.7588   6.0000                                                             
     3  2  2.50      -196.2560  10.0000                                                             
     4  0  0.50       -58.3859   2.0000                                                             
     5  0  0.50        -3.9816   1.0000                                                             
     4  1  1.50       -34.5141   6.0000                                                             
     4  2  2.50        -3.0408   4.0000                                                             
     4  3  2.50        -1.3606   0.0000                                                             
   Description                                                                                      
     l       E           TYP  RCUT    TYP  RCUT                                                     
     0    -58.3859094     23  2.200                                                                 
     0     -3.9816262     23  2.200                                                                 
     1    -34.5140738     23  2.200                                                                 
     1     13.6058260     23  2.200                                                                 
     2     -3.0408010     23  2.200                                                                 
     2     -0.1283038     23  2.200                                                                 
     3     -1.3605826     23  2.400                                                                 
  local pseudopotential read in
  partial core-charges read in
  partial kinetic energy density read in
  atomic valenz-charges read in
  non local Contribution for L=           0  read in
    real space projection operators read in
  non local Contribution for L=           0  read in
    real space projection operators read in
  non local Contribution for L=           1  read in
    real space projection operators read in
  non local Contribution for L=           1  read in
    real space projection operators read in
  non local Contribution for L=           2  read in
    real space projection operators read in
  non local Contribution for L=           2  read in
    real space projection operators read in
    PAW grid and wavefunctions read in
 
   number of l-projection  operators is LMAX  =           6
   number of lm-projection operators is LMMAX =          18
 
 Optimization of the real space projectors (new method)

 maximal supplied QI-value         = 16.25
 optimisation between [QCUT,QGAM] = [ 10.24, 20.48] = [ 29.35,117.42] Ry 
 Optimized for a Real-space Cutoff    1.38 Angstroem

   l    n(q)    QCUT    max X(q) W(low)/X(q) W(high)/X(q)  e(spline) 
   2      7    10.239    46.356    0.21E-03    0.48E-03    0.10E-06
   2      7    10.239    41.843    0.21E-03    0.50E-03    0.10E-06
   0      8    10.239    48.958    0.37E-03    0.79E-04    0.11E-06
   0      8    10.239    32.776    0.35E-03    0.73E-04    0.10E-06
   1      8    10.239    17.787    0.49E-03    0.70E-03    0.14E-06
   1      8    10.239    14.435    0.42E-03    0.61E-03    0.13E-06
 Optimization of the real space projectors (new method)

 maximal supplied QI-value         = 24.76
 optimisation between [QCUT,QGAM] = [ 10.15, 20.30] = [ 28.85,115.39] Ry 
 Optimized for a Real-space Cutoff    1.38 Angstroem

   l    n(q)    QCUT    max X(q) W(low)/X(q) W(high)/X(q)  e(spline) 
   0      8    10.150    20.381    0.22E-03    0.32E-03    0.29E-06
   0      8    10.150    15.268    0.23E-03    0.35E-03    0.30E-06
   1      8    10.150     5.964    0.46E-03    0.53E-03    0.21E-06
   1      8    10.150     5.382    0.38E-03    0.45E-03    0.19E-06
 Optimization of the real space projectors (new method)

 maximal supplied QI-value         = 15.68
 optimisation between [QCUT,QGAM] = [ 10.20, 20.39] = [ 29.11,116.42] Ry 
 Optimized for a Real-space Cutoff    1.60 Angstroem

   l    n(q)    QCUT    max X(q) W(low)/X(q) W(high)/X(q)  e(spline) 
   0     10    10.195    10.201    0.19E-04    0.50E-05    0.39E-07
   0     10    10.195     8.174    0.27E-04    0.89E-05    0.77E-07
   1      9    10.195     3.488    0.83E-04    0.69E-04    0.10E-06
   1      9    10.195     4.917    0.46E-03    0.32E-03    0.50E-06
   2      9    10.195   153.744    0.18E-03    0.91E-03    0.79E-06
   2      9    10.195   126.342    0.18E-03    0.90E-03    0.79E-06
  PAW_PBE Zn 06Sep2000                  :
 energy of atom  1       EATOM=-1748.8345
 kinetic energy error for atom=    0.0107 (will be added to EATOM!!)
  PAW_PBE O 08Apr2002                   :
 energy of atom  2       EATOM= -432.3788
 kinetic energy error for atom=    0.1156 (will be added to EATOM!!)
  PAW_PBE Nb_sv 25May2007               :
 energy of atom  3       EATOM=-1555.1913
 kinetic energy error for atom=    0.0212 (will be added to EATOM!!)
 
 
 POSCAR: Zn2 O2
  positions in direct lattice
  velocities in cartesian coordinates
 exchange correlation table for  LEXCH =        8
   RHO(1)=    0.500       N(1)  =     2000
   RHO(2)=  100.500       N(2)  =     4000
 


--------------------------------------------------------------------------------------------------------


 ion  position               nearest neighbor table
   1  0.167  0.083  0.166- 143 1.97 152 1.97 155 1.97  96 1.99
   2  0.167  0.083  0.500- 144 1.98  97 1.98 153 1.98 156 1.98
   3  0.167  0.083  0.834- 145 1.98 154 1.98 157 1.98  98 1.98
   4  0.166  0.333  0.166- 143 1.97 146 1.97 158 1.98  99 1.99
   5  0.166  0.333  0.500- 144 1.97 147 1.97 100 1.98 159 2.00
   6  0.167  0.333  0.834- 160 1.98 145 1.98 148 1.98 101 1.98
   7  0.167  0.583  0.166- 146 1.97 161 1.97 149 1.97 102 1.99
   8  0.167  0.584  0.500- 147 1.98 103 1.98 162 1.98 150 1.98
   9  0.167  0.583  0.834- 148 1.97 163 1.98 151 1.98 104 1.98
  10  0.167  0.833  0.166- 164 1.97 149 1.97 152 1.97 105 1.99
  11  0.168  0.834  0.500- 165 1.97 106 1.98 150 1.98 153 1.98
  12  0.167  0.833  0.834- 166 1.97 151 1.98 154 1.98 107 1.98
  13  0.417  0.083  0.166- 164 1.97 167 1.97 155 1.97 108 1.99
  14  0.416  0.082  0.500- 165 1.97 109 1.98 168 1.98 156 1.98
  15  0.417  0.083  0.834- 166 1.97 169 1.98 157 1.98 110 1.98
  16  0.416  0.333  0.166- 155 1.97 158 1.97 170 1.98 111 2.00
  17  0.410  0.329  0.502- 156 1.94 112 1.96 159 1.96 171 2.05
  18  0.418  0.334  0.833- 157 1.98 160 1.98 172 1.98 113 1.99
  19  0.416  0.583  0.166- 161 1.97 158 1.97 173 1.98 114 2.00
  20  0.410  0.582  0.502- 162 1.94 115 1.96 159 1.96 174 2.05
  21  0.418  0.584  0.833- 163 1.98 160 1.98 175 1.98 116 1.99
  22  0.417  0.833  0.166- 164 1.97 161 1.97 176 1.97 117 1.99
  23  0.416  0.834  0.500- 165 1.97 118 1.98 162 1.98 177 1.98
  24  0.417  0.833  0.834- 166 1.97 163 1.98 178 1.98 119 1.98
  25  0.667  0.083  0.166- 179 1.97 176 1.97 167 1.97 120 1.99
  26  0.666  0.083  0.500- 180 1.98 121 1.98 177 1.98 168 1.98
  27  0.667  0.083  0.834- 181 1.97 178 1.98 169 1.98 122 1.98
  28  0.667  0.333  0.166- 167 1.97 182 1.97 170 1.98 123 2.00
  29  0.668  0.328  0.502- 168 1.94 124 1.96 183 1.96 171 2.05
  30  0.666  0.334  0.833- 169 1.98 184 1.98 172 1.98 125 1.99
  31  0.667  0.583  0.168- 170 1.97 185 1.97 173 1.97 126 2.04
  32  0.667  0.583  0.834- 127 1.98 172 1.98 187 1.98 175 1.98
  33  0.667  0.834  0.166- 176 1.97 188 1.97 173 1.98 128 2.00
  34  0.668  0.840  0.502- 177 1.94 129 1.96 189 1.96 174 2.05
  35  0.666  0.832  0.833- 178 1.98 190 1.98 175 1.98 130 1.99
  36  0.917  0.084  0.166- 143 1.97 179 1.97 188 1.98 131 1.99
  37  0.917  0.084  0.500- 144 1.97 180 1.97 132 1.98 189 2.00
  38  0.917  0.083  0.834- 190 1.98 145 1.98 181 1.98 133 1.98
  39  0.917  0.333  0.166- 179 1.97 146 1.97 182 1.98 134 1.99
  40  0.917  0.333  0.500- 180 1.97 147 1.97 135 1.98 183 2.00
  41  0.917  0.333  0.834- 184 1.98 181 1.98 148 1.98 136 1.98
  42  0.917  0.583  0.166- 149 1.97 182 1.97 185 1.98 137 2.00
  43  0.922  0.582  0.502- 150 1.94 138 1.96 183 1.96 186 2.05
  44  0.916  0.584  0.833- 151 1.98 184 1.98 187 1.98 139 1.99
  45  0.917  0.834  0.166- 152 1.97 188 1.97 185 1.98 140 2.00
  46  0.921  0.840  0.502- 153 1.94 141 1.96 189 1.96 186 2.05
  47  0.916  0.832  0.833- 154 1.98 190 1.98 187 1.98 142 1.99
  48  0.083  0.167  1.000- 101 1.97 133 1.97  98 1.97 143 1.99
  49  0.083  0.167  0.333-  99 1.97 131 1.97  96 1.97 144 1.99
  50  0.083  0.167  0.667- 145 1.98  97 1.98 100 1.98 132 1.98
  51  0.083  0.417  1.000- 104 1.97 136 1.97 101 1.97 146 1.99
  52  0.083  0.417  0.333- 102 1.97 134 1.97  99 1.97 147 1.99
  53  0.083  0.417  0.667- 148 1.98 103 1.98 135 1.98 100 1.98
  54  0.083  0.667  1.000- 107 1.97 104 1.97 139 1.98 149 1.99
  55  0.084  0.667  0.333- 102 1.97 105 1.97 137 1.98 150 1.99
  56  0.083  0.667  0.668- 151 1.97 106 1.98 103 1.99 138 1.99
  57  0.083  0.917  1.000- 107 1.97  98 1.97 142 1.98 152 1.99
  58  0.084  0.917  0.333-  96 1.97 105 1.97 140 1.98 153 1.99
  59  0.083  0.916  0.668- 154 1.97 106 1.98  97 1.99 141 1.99
  60  0.333  0.167  1.000- 110 1.97  98 1.97 113 1.98 155 1.99
  61  0.333  0.166  0.333-  96 1.97 108 1.97 111 1.98 156 1.99
  62  0.334  0.167  0.668- 157 1.97 109 1.98  97 1.99 112 1.99
  63  0.334  0.417  0.999- 101 1.97 116 1.98 113 1.98 158 1.99
  64  0.332  0.416  0.333-  99 1.96 114 1.97 111 1.97 159 1.99
  65  0.334  0.417  0.668- 160 1.97 100 1.98 115 1.98 112 1.98
  66  0.333  0.667  1.000- 119 1.97 104 1.97 116 1.98 161 1.99
  67  0.333  0.667  0.333- 102 1.97 117 1.97 114 1.98 162 1.99
  68  0.334  0.667  0.668- 163 1.97 118 1.98 103 1.99 115 1.99
  69  0.333  0.917  1.000- 110 1.97 107 1.97 119 1.97 164 1.99
  70  0.333  0.917  0.333- 108 1.97 105 1.97 117 1.97 165 1.99
  71  0.333  0.917  0.667- 166 1.98 109 1.98 106 1.98 118 1.98
  72  0.583  0.167  1.000- 110 1.97 122 1.97 125 1.98 167 1.99
  73  0.583  0.166  0.333- 120 1.97 108 1.97 123 1.98 168 1.99
  74  0.583  0.167  0.668- 169 1.97 109 1.98 121 1.99 124 1.99
  75  0.583  0.417  0.001- 113 1.97 125 1.97 127 1.98 170 2.00
  76  0.582  0.414  0.330- 111 1.94 123 1.94 126 1.97 171 2.08
  77  0.590  0.431  0.663- 172 1.99 112 2.01 124 2.01  92 2.98  80 2.98 191 3.01
  78  0.583  0.667  0.001- 130 1.97 116 1.97 127 1.98 173 2.00
  79  0.582  0.668  0.330- 128 1.94 114 1.94 126 1.97 174 2.08
  80  0.590  0.660  0.663- 175 1.99 129 2.01 115 2.01  77 2.98  92 2.98 191 3.01
  81  0.583  0.917  1.000- 119 1.97 122 1.97 130 1.98 176 1.99
  82  0.583  0.917  0.333- 120 1.97 117 1.97 128 1.98 177 1.99
  83  0.583  0.916  0.668- 178 1.97 118 1.98 121 1.99 129 1.99
  84  0.833  0.167  1.000- 122 1.97 136 1.97 133 1.97 179 1.99
  85  0.833  0.167  0.333- 120 1.97 134 1.97 131 1.97 180 1.99
  86  0.833  0.167  0.667- 181 1.98 121 1.98 135 1.98 132 1.98
  87  0.833  0.417  1.000- 136 1.97 139 1.98 125 1.98 182 1.99
  88  0.834  0.416  0.333- 134 1.96 137 1.97 123 1.97 183 1.99
  89  0.833  0.417  0.668- 184 1.97 135 1.98 138 1.98 124 1.98
  90  0.833  0.667  0.001- 142 1.97 139 1.97 127 1.98 185 2.00
  91  0.836  0.668  0.330- 140 1.94 137 1.94 126 1.97 186 2.08
  92  0.819  0.660  0.663- 187 1.99 141 2.01 138 2.01  77 2.98  80 2.98 191 3.01
  93  0.833  0.916  0.999- 133 1.97 130 1.98 142 1.98 188 1.99
  94  0.834  0.918  0.333- 131 1.96 128 1.97 140 1.97 189 1.99
  95  0.833  0.916  0.668- 190 1.97 132 1.98 129 1.98 141 1.98
  96  0.167  0.083  0.293-  58 1.97  61 1.97  49 1.97   1 1.99
  97  0.167  0.083  0.627-   2 1.98  50 1.98  59 1.99  62 1.99
  98  0.167  0.083  0.961-  57 1.97  60 1.97  48 1.97   3 1.98
  99  0.167  0.333  0.294-  64 1.96  49 1.97  52 1.97   4 1.99
 100  0.167  0.334  0.627-   5 1.98  65 1.98  50 1.98  53 1.98
 101  0.167  0.333  0.961-  63 1.97  48 1.97  51 1.97   6 1.98
 102  0.167  0.583  0.293-  67 1.97  55 1.97  52 1.97   7 1.99
 103  0.167  0.584  0.627-   8 1.98  53 1.98  68 1.99  56 1.99
 104  0.167  0.583  0.961-  66 1.97  54 1.97  51 1.97   9 1.98
 105  0.167  0.833  0.293-  55 1.97  58 1.97  70 1.97  10 1.99
 106  0.167  0.833  0.627-  11 1.98  56 1.98  59 1.98  71 1.98
 107  0.167  0.833  0.961-  54 1.97  57 1.97  69 1.97  12 1.98
 108  0.417  0.083  0.293-  73 1.97  61 1.97  70 1.97  13 1.99
 109  0.417  0.083  0.627-  14 1.98  74 1.98  62 1.98  71 1.98
 110  0.417  0.083  0.961-  72 1.97  60 1.97  69 1.97  15 1.98
 111  0.416  0.333  0.294-  76 1.94  64 1.97  61 1.98  16 2.00
 112  0.419  0.335  0.628-  17 1.96  65 1.98  62 1.99  77 2.01
 113  0.417  0.334  0.960-  75 1.97  63 1.98  60 1.98  18 1.99
 114  0.416  0.583  0.294-  79 1.94  64 1.97  67 1.98  19 2.00
 115  0.419  0.584  0.628-  20 1.96  65 1.98  68 1.99  80 2.01
 116  0.417  0.584  0.960-  78 1.97  63 1.98  66 1.98  21 1.99
 117  0.417  0.833  0.293-  67 1.97  82 1.97  70 1.97  22 1.99
 118  0.417  0.833  0.627-  23 1.98  68 1.98  83 1.98  71 1.98
 119  0.417  0.833  0.961-  66 1.97  81 1.97  69 1.97  24 1.98
 120  0.667  0.083  0.293-  82 1.97  73 1.97  85 1.97  25 1.99
 121  0.666  0.083  0.627-  26 1.98  86 1.98  83 1.99  74 1.99
 122  0.667  0.083  0.961-  81 1.97  72 1.97  84 1.97  27 1.98
 123  0.667  0.333  0.294-  76 1.94  88 1.97  73 1.98  28 2.00
 124  0.666  0.335  0.628-  29 1.96  89 1.98  74 1.99  77 2.01
 125  0.666  0.334  0.960-  75 1.97  87 1.98  72 1.98  30 1.99
 126  0.667  0.583  0.298-  76 1.97  91 1.97  79 1.97  31 2.04
 127  0.667  0.583  0.961-  75 1.98  90 1.98  78 1.98  32 1.98
 128  0.667  0.834  0.294-  79 1.94  94 1.97  82 1.98  33 2.00
 129  0.666  0.831  0.628-  34 1.96  95 1.98  83 1.99  80 2.01
 130  0.666  0.833  0.960-  78 1.97  93 1.98  81 1.98  35 1.99
 131  0.917  0.083  0.294-  94 1.96  49 1.97  85 1.97  36 1.99
 132  0.916  0.083  0.627-  37 1.98  95 1.98  50 1.98  86 1.98
 133  0.917  0.083  0.961-  93 1.97  48 1.97  84 1.97  38 1.98
 134  0.917  0.333  0.294-  88 1.96  85 1.97  52 1.97  39 1.99
 135  0.916  0.334  0.627-  40 1.98  89 1.98  86 1.98  53 1.98
 136  0.917  0.333  0.961-  87 1.97  84 1.97  51 1.97  41 1.98
 137  0.917  0.583  0.294-  91 1.94  88 1.97  55 1.98  42 2.00
 138  0.915  0.584  0.628-  43 1.96  89 1.98  56 1.99  92 2.01
 139  0.916  0.584  0.960-  90 1.97  87 1.98  54 1.98  44 1.99
 140  0.917  0.834  0.294-  91 1.94  94 1.97  58 1.98  45 2.00
 141  0.915  0.831  0.628-  46 1.96  95 1.98  59 1.99  92 2.01
 142  0.916  0.833  0.960-  90 1.97  93 1.98  57 1.98  47 1.99
 143  0.083  0.167  0.127-   1 1.97   4 1.97  36 1.97  48 1.99
 144  0.084  0.166  0.460-   5 1.97  37 1.97   2 1.98  49 1.99
 145  0.083  0.167  0.794-   3 1.98   6 1.98  38 1.98  50 1.98
 146  0.083  0.417  0.127-   7 1.97  39 1.97   4 1.97  51 1.99
 147  0.084  0.417  0.460-   5 1.97  40 1.97   8 1.98  52 1.99
 148  0.083  0.417  0.794-   9 1.97  41 1.98   6 1.98  53 1.98
 149  0.083  0.667  0.127-  42 1.97   7 1.97  10 1.97  54 1.99
 150  0.084  0.667  0.460-  43 1.94  11 1.98   8 1.98  55 1.99
 151  0.083  0.667  0.794-  56 1.97  44 1.98  12 1.98   9 1.98
 152  0.083  0.917  0.127-  45 1.97   1 1.97  10 1.97  57 1.99
 153  0.084  0.917  0.460-  46 1.94  11 1.98   2 1.98  58 1.99
 154  0.083  0.916  0.794-  59 1.97  47 1.98  12 1.98   3 1.98
 155  0.333  0.167  0.127-  16 1.97   1 1.97  13 1.97  60 1.99
 156  0.333  0.166  0.460-  17 1.94  14 1.98   2 1.98  61 1.99
 157  0.334  0.167  0.794-  62 1.97  18 1.98  15 1.98   3 1.98
 158  0.333  0.417  0.127-  19 1.97  16 1.97   4 1.98  63 1.99
 159  0.335  0.417  0.461-  20 1.96  17 1.96  64 1.99   5 2.00
 160  0.334  0.417  0.794-  65 1.97   6 1.98  21 1.98  18 1.98
 161  0.333  0.667  0.127-  19 1.97   7 1.97  22 1.97  66 1.99
 162  0.333  0.667  0.460-  20 1.94  23 1.98   8 1.98  67 1.99
 163  0.334  0.667  0.794-  68 1.97  21 1.98  24 1.98   9 1.98
 164  0.333  0.917  0.127-  13 1.97  10 1.97  22 1.97  69 1.99
 165  0.333  0.917  0.460-  14 1.97  11 1.97  23 1.97  70 1.99
 166  0.333  0.917  0.794-  15 1.97  12 1.97  24 1.97  71 1.98
 167  0.583  0.167  0.127-  28 1.97  25 1.97  13 1.97  72 1.99
 168  0.583  0.166  0.460-  29 1.94  14 1.98  26 1.98  73 1.99
 169  0.583  0.167  0.794-  74 1.97  30 1.98  15 1.98  27 1.98
 170  0.584  0.417  0.129-  31 1.97  16 1.98  28 1.98  75 2.00
 171  0.584  0.418  0.463- 191 1.97  29 2.05  17 2.05  76 2.08
 172  0.584  0.419  0.790-  32 1.98  30 1.98  18 1.98  77 1.99
 173  0.584  0.666  0.129-  31 1.97  33 1.98  19 1.98  78 2.00
 174  0.584  0.666  0.463- 191 1.97  34 2.05  20 2.05  79 2.08
 175  0.584  0.666  0.790-  32 1.98  35 1.98  21 1.98  80 1.99
 176  0.583  0.917  0.127-  33 1.97  25 1.97  22 1.97  81 1.99
 177  0.583  0.917  0.460-  34 1.94  23 1.98  26 1.98  82 1.99
 178  0.583  0.916  0.794-  83 1.97  35 1.98  24 1.98  27 1.98
 179  0.833  0.167  0.127-  25 1.97  39 1.97  36 1.97  84 1.99
 180  0.833  0.166  0.460-  37 1.97  40 1.97  26 1.98  85 1.99
 181  0.833  0.167  0.794-  27 1.97  41 1.98  38 1.98  86 1.98
 182  0.833  0.417  0.127-  42 1.97  28 1.97  39 1.98  87 1.99
 183  0.833  0.417  0.461-  43 1.96  29 1.96  88 1.99  40 2.00
 184  0.833  0.417  0.794-  89 1.97  41 1.98  44 1.98  30 1.98
 185  0.833  0.666  0.129-  31 1.97  45 1.98  42 1.98  90 2.00
 186  0.832  0.666  0.463- 191 1.97  43 2.05  46 2.05  91 2.08
 187  0.831  0.666  0.790-  32 1.98  44 1.98  47 1.98  92 1.99
 188  0.833  0.917  0.127-  33 1.97  45 1.97  36 1.98  93 1.99
 189  0.833  0.915  0.461-  34 1.96  46 1.96  94 1.99  37 2.00
 190  0.833  0.916  0.794-  95 1.97  38 1.98  35 1.98  47 1.98
 191  0.667  0.583  0.505- 174 1.97 171 1.97 186 1.97  77 3.01  92 3.01  80 3.01
 
  LATTYP: Found a hexagonal cell.
 ALAT       =    12.9943542480
 C/A-ratio  =     1.2014478222
  
  Lattice vectors:
  
 A1 = (  12.9943542480,   0.0000000000,   0.0000000000)
 A2 = (  -6.4971766472,  11.2534400587,   0.0000000000)
 A3 = (   0.0000000000,   0.0000000000,  15.6120386124)


Analysis of symmetry for initial positions (statically):
=====================================================================
 Subroutine PRICEL returns:
 Original cell was already a primitive cell.
 

 Routine SETGRP: Setting up the symmetry group for a 
 hexagonal supercell.


 Subroutine GETGRP returns: Found  2 space group operations
 (whereof  1 operations were pure point group operations)
 out of a pool of 24 trial point group operations.


The static configuration has the point symmetry C_1 .
 The point group associated with its full space group is C_1h.


Analysis of symmetry for dynamics (positions and initial velocities):
=====================================================================
 Subroutine PRICEL returns:
 Original cell was already a primitive cell.
 

 Routine SETGRP: Setting up the symmetry group for a 
 hexagonal supercell.


 Subroutine GETGRP returns: Found  2 space group operations
 (whereof  1 operations were pure point group operations)
 out of a pool of 24 trial point group operations.


The dynamic configuration has the point symmetry C_1 .
 The point group associated with its full space group is C_1h.


Analysis of structural, dynamic, and magnetic symmetry:
=====================================================================
 Subroutine PRICEL returns:
 Original cell was already a primitive cell.
 

 Routine SETGRP: Setting up the symmetry group for a 
 hexagonal supercell.


 Subroutine GETGRP returns: Found  2 space group operations
 (whereof  1 operations were pure point group operations)
 out of a pool of 24 trial point group operations.


The overall configuration has the point symmetry C_1 .
 The point group associated with its full space group is C_1h.


 Subroutine INISYM returns: Found  2 space group operations
 (whereof  1 operations are pure point group operations),
 and found     1 'primitive' translations


----------------------------------------------------------------------------------------

                                     Primitive cell                                     

  volume of cell :    2282.9669

  direct lattice vectors                    reciprocal lattice vectors
    12.994354248  0.000000000  0.000000000     0.076956498  0.044430855  0.000000000
    -6.497176647 11.253440059  0.000000000     0.000000000  0.088861716  0.000000000
     0.000000000  0.000000000 15.612038612     0.000000000  0.000000000  0.064053134

  length of vectors
    12.994354248 12.994353294 15.612038612     0.088861710  0.088861716  0.064053134

  position of ions in fractional coordinates (direct lattice)
     0.166607359  0.083392633  0.165910452
     0.166736146  0.083263846  0.500490878
     0.166590121  0.083409871  0.833580419
     0.166387229  0.333185663  0.166275047
     0.166005614  0.333007743  0.500247334
     0.166692973  0.333332840  0.833619614
     0.166602390  0.583204528  0.165913276
     0.166758736  0.583507529  0.500484571
     0.166584136  0.583169938  0.833597209
     0.166763672  0.833381328  0.165920427
     0.167574998  0.833799185  0.500456339
     0.166790729  0.833401443  0.833821540
     0.416618672  0.083236320  0.165920427
     0.416200815  0.082424994  0.500456339
     0.416598557  0.083209263  0.833821540
     0.415716133  0.332791009  0.166139409
     0.410248208  0.328512047  0.502408973
     0.418256245  0.334203868  0.832679423
     0.415708749  0.582922642  0.166135470
     0.410241763  0.581767822  0.502411723
     0.418203140  0.584062046  0.832697894
     0.416610867  0.833389133  0.165919727
     0.416196649  0.833803351  0.500463455
     0.416577715  0.833422285  0.833834491
     0.666795472  0.083397602  0.165913276
     0.666492471  0.083241256  0.500484571
     0.666830062  0.083415856  0.833597209
     0.667085078  0.332789148  0.166141638
     0.668287880  0.328487695  0.502412202
     0.665986482  0.334165631  0.832694550
     0.666663082  0.583336918  0.167605249
     0.666659723  0.583340277  0.834483352
     0.667077358  0.834291251  0.166135470
     0.668232178  0.839758237  0.502411723
     0.665937954  0.831796860  0.832697894
     0.916814337  0.083612763  0.166275047
     0.916992257  0.083994378  0.500247334
     0.916667160  0.083307019  0.833619614
     0.916818235  0.333181765  0.166277431
     0.917030978  0.332969022  0.500269672
     0.916692152  0.333307848  0.833632601
     0.917210852  0.582914922  0.166141638
     0.921512305  0.581712120  0.502412202
     0.915834369  0.584013518  0.832694550
     0.917208991  0.834283867  0.166139409
     0.921487953  0.839751792  0.502408973
     0.915796132  0.831743755  0.832679423
     0.083294618  0.166705374  0.999961605
     0.083307162  0.166692830  0.332996389
     0.083437478  0.166562514  0.667022127
     0.083298183  0.416587376  0.999968860
     0.083312836  0.416619412  0.332997104
     0.083493031  0.416917528  0.667034240
     0.083169669  0.666552244  0.999656268
     0.084492420  0.667123304  0.332509621
     0.082705708  0.667042529  0.667822366
     0.083158556  0.916618375  0.999650503
     0.084483527  0.917376901  0.332509150
     0.082659686  0.915654968  0.667823293
     0.333381625  0.166841436  0.999650503
     0.332623099  0.165516465  0.332509150
     0.334345032  0.167340306  0.667823293
     0.333524407  0.416765641  0.999499188
     0.332315865  0.416164068  0.333025790
     0.333783977  0.416931997  0.668015645
     0.333371509  0.666549393  0.999661889
     0.332622685  0.667127441  0.332508153
     0.334342215  0.667077277  0.667827273
     0.333326873  0.916673127  0.999997173
     0.333327286  0.916672714  0.332583509
     0.333298375  0.916701625  0.667181641
     0.583447756  0.166830323  0.999656268
     0.582876696  0.165507572  0.332509621
     0.582957471  0.167294284  0.667822366
     0.583326527  0.416630885  0.000867179
     0.581899517  0.413783343  0.329794421
     0.590357951  0.430560793  0.663093858
     0.583312547  0.666687453  0.000867030
     0.581879975  0.668120025  0.329799326
     0.590249705  0.659750295  0.663111561
     0.583450607  0.916628491  0.999661889
     0.582872559  0.917377315  0.332508153
     0.582922723  0.915657785  0.667827273
     0.833412624  0.166701809  0.999968860
     0.833380588  0.166687156  0.332997104
     0.833082472  0.166506961  0.667034240
     0.833239442  0.416760558  0.999515876
     0.833850211  0.416149789  0.333025955
     0.833177101  0.416822899  0.668040920
     0.833369115  0.666673473  0.000867179
     0.836216657  0.668100483  0.329794421
     0.819439207  0.659642049  0.663093858
     0.833234359  0.916475593  0.999499188
     0.833835932  0.917684135  0.333025790
     0.833068003  0.916216023  0.668015645
     0.166536676  0.083463316  0.293417671
     0.166993690  0.083006302  0.627249544
     0.166634253  0.083365739  0.960637481
     0.166642971  0.333315182  0.293804653
     0.167397186  0.333692856  0.626963425
     0.166780102  0.333381963  0.960648785
     0.166530764  0.583063984  0.293421065
     0.167021837  0.584010065  0.627243686
     0.166628883  0.583251209  0.960649669
     0.166614175  0.833307619  0.293402175
     0.166507449  0.833269497  0.627015271
     0.166662346  0.833327243  0.960757474
     0.416692381  0.083385817  0.293402175
     0.416730503  0.083492543  0.627015271
     0.416672757  0.083337646  0.960757474
     0.416384380  0.333203904  0.294342509
     0.419115269  0.335079351  0.627730393
     0.417462077  0.333786242  0.960151797
     0.416368975  0.583168498  0.294335421
     0.419047315  0.584102956  0.627734871
     0.417448618  0.583677509  0.960164339
     0.416687232  0.833312768  0.293401403
     0.416701987  0.833298013  0.627020864
     0.416665796  0.833334204  0.960767861
     0.666936016  0.083469228  0.293421065
     0.665989935  0.082978155  0.627243686
     0.666748791  0.083371109  0.960649669
     0.666836272  0.333201406  0.294343195
     0.666029117  0.334972882  0.627733159
     0.666346357  0.333768878  0.960162994
     0.666664048  0.583335952  0.298195508
     0.666669209  0.583330791  0.961120288
     0.666831502  0.833631025  0.294335421
     0.665897044  0.830952685  0.627734871
     0.666322491  0.832551382  0.960164339
     0.916684818  0.083357021  0.293804653
     0.916307144  0.082602806  0.626963425
     0.916618037  0.083219890  0.960648785
     0.916690844  0.333309156  0.293805320
     0.916370270  0.333629730  0.626975068
     0.916624529  0.333375471  0.960659845
     0.916798594  0.583163728  0.294343195
     0.915027118  0.583970883  0.627733159
     0.916231122  0.583653643  0.960162994
     0.916796096  0.833615620  0.294342509
     0.914920649  0.830884731  0.627730393
     0.916213758  0.832537923  0.960151797
     0.083299481  0.166700511  0.127243079
     0.083507796  0.166492196  0.460343693
     0.083302134  0.166697858  0.793744912
     0.083300882  0.416600002  0.127248202
     0.083540580  0.417060079  0.460342288
     0.083320340  0.416612400  0.793752637
     0.083213234  0.666598201  0.127090823
     0.083767187  0.667202811  0.459887046
     0.083081414  0.666638848  0.794268433
     0.083208731  0.916619441  0.127087931
     0.083745486  0.916590515  0.459888672
     0.083055635  0.916437878  0.794262515
     0.333380559  0.166791261  0.127087931
     0.333409485  0.166254506  0.459888672
     0.333562122  0.166944357  0.794262515
     0.333313135  0.416660149  0.127153819
     0.334563362  0.417300976  0.460561150
     0.333539329  0.416785868  0.794298897
     0.333371344  0.666605623  0.127092314
     0.333427147  0.667208235  0.459882098
     0.333546948  0.666662426  0.794275759
     0.333324763  0.916675237  0.127201046
     0.333318732  0.916681268  0.459793401
     0.333313645  0.916686355  0.793910836
     0.583401799  0.166786758  0.127090823
     0.582797189  0.166232805  0.459887046
     0.583361152  0.166918578  0.794268433
     0.583526281  0.417043880  0.128852254
     0.584042012  0.418018927  0.462763861
     0.584336688  0.418588337  0.790469729
     0.583512169  0.666487831  0.128851408
     0.583996401  0.666003599  0.462767006
     0.584266980  0.665733020  0.790481216
     0.583394377  0.916628656  0.127092314
     0.582791765  0.916572853  0.459882098
     0.583337574  0.916453052  0.794275759
     0.833399998  0.166699110  0.127248202
     0.832939921  0.166459412  0.460342288
     0.833387600  0.166679652  0.793752637
     0.833346439  0.416653561  0.127162834
     0.832758177  0.417241823  0.460560067
     0.833262715  0.416737285  0.794312805
     0.832956120  0.666473719  0.128852254
     0.831981073  0.665957988  0.462763861
     0.831411663  0.665663312  0.790469729
     0.833339851  0.916686865  0.127153819
     0.832699024  0.915436638  0.460561150
     0.833214132  0.916460671  0.794298897
     0.666656461  0.583343539  0.504788732

  ion indices of the primitive-cell ions
   primitive index   ion index
                 1           1
                 2           2
                 3           3
                 4           4
                 5           5
                 6           6
                 7           7
                 8           8
                 9           9
                10          10
                11          11
                12          12
                13          13
                14          14
                15          15
                16          16
                17          17
                18          18
                19          19
                20          20
                21          21
                22          22
                23          23
                24          24
                25          25
                26          26
                27          27
                28          28
                29          29
                30          30
                31          31
                32          32
                33          33
                34          34
                35          35
                36          36
                37          37
                38          38
                39          39
                40          40
                41          41
                42          42
                43          43
                44          44
                45          45
                46          46
                47          47
                48          48
                49          49
                50          50
                51          51
                52          52
                53          53
                54          54
                55          55
                56          56
                57          57
                58          58
                59          59
                60          60
                61          61
                62          62
                63          63
                64          64
                65          65
                66          66
                67          67
                68          68
                69          69
                70          70
                71          71
                72          72
                73          73
                74          74
                75          75
                76          76
                77          77
                78          78
                79          79
                80          80
                81          81
                82          82
                83          83
                84          84
                85          85
                86          86
                87          87
                88          88
                89          89
                90          90
                91          91
                92          92
                93          93
                94          94
                95          95
                96          96
                97          97
                98          98
                99          99
               100         100
               101         101
               102         102
               103         103
               104         104
               105         105
               106         106
               107         107
               108         108
               109         109
               110         110
               111         111
               112         112
               113         113
               114         114
               115         115
               116         116
               117         117
               118         118
               119         119
               120         120
               121         121
               122         122
               123         123
               124         124
               125         125
               126         126
               127         127
               128         128
               129         129
               130         130
               131         131
               132         132
               133         133
               134         134
               135         135
               136         136
               137         137
               138         138
               139         139
               140         140
               141         141
               142         142
               143         143
               144         144
               145         145
               146         146
               147         147
               148         148
               149         149
               150         150
               151         151
               152         152
               153         153
               154         154
               155         155
               156         156
               157         157
               158         158
               159         159
               160         160
               161         161
               162         162
               163         163
               164         164
               165         165
               166         166
               167         167
               168         168
               169         169
               170         170
               171         171
               172         172
               173         173
               174         174
               175         175
               176         176
               177         177
               178         178
               179         179
               180         180
               181         181
               182         182
               183         183
               184         184
               185         185
               186         186
               187         187
               188         188
               189         189
               190         190
               191         191

----------------------------------------------------------------------------------------

 
 
 KPOINTS: pymatgen with grid density = 659 / numbe

Automatic generation of k-mesh.
 Grid dimensions read from file:
 generate k-points for:    1    1    1

 Generating k-lattice:

  Cartesian coordinates                     Fractional coordinates (reciprocal lattice)
     0.076956498  0.044430855  0.000000000     1.000000000  0.000000000  0.000000000
     0.000000000  0.088861716  0.000000000     0.000000000  1.000000000  0.000000000
     0.000000000  0.000000000  0.064053134     0.000000000  0.000000000  1.000000000

  Length of vectors
     0.088861710  0.088861716  0.064053134

  Shift w.r.t. Gamma in fractional coordinates (k-lattice)
     0.000000000  0.000000000  0.000000000

 
 Subroutine IBZKPT returns following result:
 ===========================================
 
 Found      1 irreducible k-points:
 
 Following reciprocal coordinates:
            Coordinates               Weight
  0.000000  0.000000  0.000000      1.000000
 
 Following cartesian coordinates:
            Coordinates               Weight
  0.000000  0.000000  0.000000      1.000000
 
 
 Subroutine IBZKPT_HF returns following result:
 ==============================================
 
 Found      1 k-points in 1st BZ
 the following      1 k-points will be used (e.g. in the exchange kernel)
 Following reciprocal coordinates:   # in IRBZ
  0.000000  0.000000  0.000000    1.00000000   1 t-inv F


--------------------------------------------------------------------------------------------------------




 Dimension of arrays:
   k-points           NKPTS =      1   k-points in BZ     NKDIM =      1   number of bands    NBANDS=   1344
   number of dos      NEDOS =    301   number of ions     NIONS =    191
   non local maximal  LDIM  =      6   non local SUM 2l+1 LMDIM =     18
   total plane-waves  NPLWV = 327680
   max r-space proj   IRMAX =   2514   max aug-charges    IRDMAX=   6277
   dimension x,y,z NGX =    64 NGY =   64 NGZ =   80
   dimension x,y,z NGXF=   128 NGYF=  128 NGZF=  160
   support grid    NGXF=   128 NGYF=  128 NGZF=  160
   ions per type =              95  95   1
   NGX,Y,Z   is equivalent  to a cutoff of   8.19,  8.19,  8.52 a.u.
   NGXF,Y,Z  is equivalent  to a cutoff of  16.38, 16.38, 17.04 a.u.

 SYSTEM =  zno                                     
 POSCAR =  Zn2 O2                                  

 Startparameter for this run:
   NWRITE =      2    write-flag & timer
   PREC   = normal    normal or accurate (medium, high low for compatibility)
   ISTART =      1    job   : 0-new  1-cont  2-samecut
   ICHARG =      1    charge: 1-file 2-atom 10-const
   ISPIN  =      2    spin polarized calculation?
   LNONCOLLINEAR =      F non collinear calculations
   LSORBIT =      F    spin-orbit coupling
   INIWAV =      1    electr: 0-lowe 1-rand  2-diag
   LASPH  =      F    aspherical Exc in radial PAW
 Electronic Relaxation 1
   ENCUT  =  400.0 eV  29.40 Ry    5.42 a.u.  21.19 21.19 25.46*2*pi/ulx,y,z
   ENINI  =  400.0     initial cutoff
   ENAUG  =  605.4 eV  augmentation charge cutoff
   NELM   =   1500;   NELMIN=  4; NELMDL=  0     # of ELM steps 
   EDIFF  = 0.1E-05   stopping-criterion for ELM
   LREAL  =      T    real-space projection
   NLSPLINE    = F    spline interpolate recip. space projectors
   LCOMPAT=      F    compatible to vasp.4.4
   GGA_COMPAT  = T    GGA compatible to vasp.4.4-vasp.4.6
   LMAXPAW     = -100 max onsite density
   LMAXMIX     =    2 max onsite mixed and CHGCAR
   VOSKOWN=      0    Vosko Wilk Nusair interpolation
   ROPT   =   -0.00050  -0.00050  -0.00050
 Ionic relaxation
   EDIFFG = -.1E-01   stopping-criterion for IOM
   NSW    =      0    number of steps for IOM
   NBLOCK =      1;   KBLOCK =      1    inner block; outer block 
   IBRION =     -1    ionic relax: 0-MD 1-quasi-New 2-CG
   NFREE  =      1    steps in history (QN), initial steepest desc. (CG)
   ISIF   =      2    stress and relaxation
   IWAVPR =     10    prediction:  0-non 1-charg 2-wave 3-comb
   ISYM   =      3    0-nonsym 1-usesym 2-fastsym
   LCORR  =      T    Harris-Foulkes like correction to forces

   POTIM  = 0.5000    time-step for ionic-motion
   TEIN   =    0.0    initial temperature
   TEBEG  =    0.0;   TEEND  =   0.0 temperature during run
   SMASS  =  -3.00    Nose mass-parameter (am)
   estimated Nose-frequenzy (Omega)   =  0.10E-29 period in steps = 0.13E+47 mass=  -0.386E-26a.u.
   SCALEE = 1.0000    scale energy and forces
   NPACO  =    256;   APACO  = 10.0  distance and # of slots for P.C.
   PSTRESS=    0.0 pullay stress

  Mass of Ions in am
   POMASS =  65.39 16.00 92.91
  Ionic Valenz
   ZVAL   =  12.00  6.00 13.00
  Atomic Wigner-Seitz radii
   RWIGS  =  -1.00 -1.00 -1.00
  virtual crystal weights 
   VCA    =   1.00  1.00  1.00
   NELECT =    1722.0000    total number of electrons
   NUPDOWN=      -1.0000    fix difference up-down

 DOS related values:
   EMIN   =  10.00;   EMAX   =-10.00  energy-range for DOS
   EFERMI =   0.00;   METHOD = LEGACY      
   ISMEAR =    -2;   SIGMA  =   0.00  broadening in eV -4-tet -1-fermi 0-gaus

 Electronic relaxation 2 (details)
   IALGO  =     53    algorithm
   LDIAG  =      F    sub-space diagonalisation (order eigenvalues)
   LSUBROT=      F    optimize rotation matrix (better conditioning)
   TURBO    =      0    0=normal 1=particle mesh
   IRESTART =      0    0=no restart 2=restart with 2 vectors
   NREBOOT  =      0    no. of reboots
   NMIN     =      0    reboot dimension
   EREF     =   0.00    reference energy to select bands
   IMIX   =      4    mixing-type and parameters
     AMIX     =   0.40;   BMIX     =  1.00
     AMIX_MAG =   1.60;   BMIX_MAG =  1.00
     AMIN     =   0.10
     WC   =   100.;   INIMIX=   1;  MIXPRE=   1;  MAXMIX= -45

 Intra band minimization:
   WEIMIN = 0.0000     energy-eigenvalue tresh-hold
   EBREAK =  0.19E-09  absolut break condition
   DEPER  =   0.30     relativ break condition  

   TIME   =   0.30     timestep for ELM

  volume/ion in A,a.u.               =      11.95        80.66
  Fermi-wavevector in a.u.,A,eV,Ry     =   1.490228  2.816122 30.215533  2.220779
  Thomas-Fermi vector in A             =   2.603036
 
 Write flags
   LWAVE        =      T    write WAVECAR
   LDOWNSAMPLE  =      F    k-point downsampling of WAVECAR
   LCHARG       =      T    write CHGCAR
   LVTOT        =      F    write LOCPOT, total local potential
   LVHAR        =      T    write LOCPOT, Hartree potential only
   LELF         =      F    write electronic localiz. function (ELF)
   LORBIT       =     11    0 simple, 1 ext, 2 COOP (PROOUT), +10 PAW based schemes


 Dipole corrections
   LMONO  =      F    monopole corrections only (constant potential shift)
   LDIPOL =      F    correct potential (dipole corrections)
   IDIPOL =      0    1-x, 2-y, 3-z, 4-all directions 
   EPSILON=  1.0000000 bulk dielectric constant

 Exchange correlation treatment:
   GGA     =    PE    GGA type
   LEXCH   =     8    internal setting for exchange type
   LIBXC   =     F    Libxc                    
   VOSKOWN =     0    Vosko Wilk Nusair interpolation
   EXXOEP  =     0    0=HF, 1=EXX-LHF (local Hartree Fock) 2=EXX OEP
   LHFCALC =     T    Hartree Fock is set to
   LSYMGRAD=     F    symmetrize gradient (conserves proper symmetry)
   PRECFOCK=normal    Normal, Fast or Accurate (Low or Medium for compatibility)
   LRHFCALC=     F    long range Hartree Fock
   LRSCOR  =     F    long range correlation only (use DFT for short range part)
   LTHOMAS =     F    Thomas Fermi screening in HF
   LMODELHF=     F    short range full HF, long range fraction AEXX
   FOCKCORR=     1    mode to apply convergence corrections
   LFOCKACE=     T    use Adeptively-Compressed-Exchange operator
   ENCUT4O =  -1.0   cutoff for four orbital integrals eV
   LMAXFOCK=     4    L truncation for augmentation on plane wave grid
   LMAXFOCKAE=  -1    L truncation for all-electron charge restoration on plane wave grid
   NMAXFOCKAE=   1    number of basis functions for all-electron charge restoration
   LFOCKAEDFT=     F  apply the AE augmentation even for DFT
   NKREDX  =     1    reduce k-point grid by
   NKREDY  =     1    reduce k-point grid by
   NKREDZ  =     1    reduce k-point grid by
   SHIFTRED=     F    shift reduced grid of Gamma
   HFKIDENT=     F    idential grid for each k-point
   ODDONLY =     F    use only odd q-grid points
   EVENONLY=     F    use only even q-grid points
   HFALPHA =   -1.0000 decay constant for conv. correction
   MCALPHA =    0.0000 extent of test-charge in conv. correction in multipole expansion
   AEXX    =    0.3750 exact exchange contribution
   HFSCREEN=    0.2000 screening length (either q_TF or 0.3 A-1)
   HFSCREENC=   0.2000 screening length for correlation (either q_TF or 0.3 A-1)
   HFRCUT  =    0.0000 spherical cutoff for potential kernel
   ALDAX   =    0.6250 LDA exchange part
   AGGAX   =    0.6250 GGA exchange part
   ALDAC   =    1.0000 LDA correlation
   AGGAC   =    1.0000 GGA correlation
   ENCUTFOCK=  -1.0 apply spherical cutoff to Coloumb kernel
   NBANDSGWLOW=     1    first orbital included in HF term
   NBLOCK_FOCK=    64    blocking factor in FOCK_ACC

 Linear response parameters
   LEPSILON=     F    determine dielectric tensor
   LRPA    =     F    only Hartree local field effects (RPA)
   LNABLA  =     F    use nabla operator in PAW spheres
   LVEL    =     F    velocity operator in full k-point grid
   CSHIFT  =0.1000    complex shift for real part using Kramers Kronig
   OMEGAMAX=  -1.0    maximum frequency
   DEG_THRESHOLD= 0.2000000E-02 threshold for treating states as degnerate
   RTIME   =   -0.100 relaxation time in fs
  (WPLASMAI=    0.000 imaginary part of plasma frequency in eV, 0.658/RTIME)
   DFIELD  = 0.0000000 0.0000000 0.0000000 field for delta impulse in time
 
  Optional k-point grid parameters
   LKPOINTS_OPT  =     F    use optional k-point grid
   KPOINTS_OPT_MODE=     1    mode for optional k-point grid
 
 Orbital magnetization related:
   ORBITALMAG=     F  switch on orbital magnetization
   LCHIMAG   =     F  perturbation theory with respect to B field
   DQ        =  0.001000  dq finite difference perturbation B field
   LLRAUG    =     F  two centre corrections for induced B field
   LBONE     =     F  B-component reconstruction in AE one-centre
   LVGVCALC  =     T  calculate vGv susceptibility
   LVGVAPPL  =     F  apply vGv susceptibility instead of pGv for G=0

 Random number generation:
   RANDOM_GENERATOR = DEFAULT
   PCG_SEED         = not used


--------------------------------------------------------------------------------------------------------


 Static calculation
 charge density and potential will be updated during run
 spin polarized calculation
 Conjugate gradient for all bands (Kresse, et al. variant)
 perform Loewdin sub-space diagonalisation
    ordering is kept fixed
    before iterative eigenvector-optimisation
 modified Broyden-mixing scheme, WC =      100.0
 initial mixing is a Kerker type mixing with AMIX =  0.4000 and BMIX =      1.0000
 Hartree-type preconditioning will be used
 using additional bands          483
 WARNING: no broadening specified (might cause bad convergence)
 real space projection scheme for non local part
 use partial core corrections
 no Harris-corrections to forces 
 use gradient corrections 
 use of overlap-Matrix (Vanderbilt PP)
 partial occupancies read from INCAR or WAVECAR (fixed during run)


--------------------------------------------------------------------------------------------------------


  energy-cutoff  :      400.00
  volume of cell :     2282.97
      direct lattice vectors                 reciprocal lattice vectors
    12.994354248  0.000000000  0.000000000     0.076956498  0.044430855  0.000000000
    -6.497176647 11.253440059  0.000000000     0.000000000  0.088861716  0.000000000
     0.000000000  0.000000000 15.612038612     0.000000000  0.000000000  0.064053134

  length of vectors
    12.994354248 12.994353294 15.612038612     0.088861710  0.088861716  0.064053134


 
 old parameters found on file WAVECAR:
  energy-cutoff  :      400.00
  volume of cell :     2282.97
      direct lattice vectors                 reciprocal lattice vectors
    12.994354248  0.000000000  0.000000000     0.076956498  0.044430855  0.000000000
    -6.497176647 11.253440059  0.000000000     0.000000000  0.088861716  0.000000000
     0.000000000  0.000000000 15.612038612     0.000000000  0.000000000  0.064053134

  length of vectors

 
 k-points in units of 2pi/SCALE and weight: pymatgen with grid density = 659 / numbe
   0.00000000  0.00000000  0.00000000       1.000
 
 k-points in reciprocal lattice and weights: pymatgen with grid density = 659 / numbe
   0.00000000  0.00000000  0.00000000       1.000
 
 position of ions in fractional coordinates (direct lattice) 
   0.16660736  0.08339263  0.16591045
   0.16673615  0.08326385  0.50049088
   0.16659012  0.08340987  0.83358042
   0.16638723  0.33318566  0.16627505
   0.16600561  0.33300774  0.50024733
   0.16669297  0.33333284  0.83361961
   0.16660239  0.58320453  0.16591328
   0.16675874  0.58350753  0.50048457
   0.16658414  0.58316994  0.83359721
   0.16676367  0.83338133  0.16592043
   0.16757500  0.83379918  0.50045634
   0.16679073  0.83340144  0.83382154
   0.41661867  0.08323632  0.16592043
   0.41620082  0.08242499  0.50045634
   0.41659856  0.08320926  0.83382154
   0.41571613  0.33279101  0.16613941
   0.41024821  0.32851205  0.50240897
   0.41825625  0.33420387  0.83267942
   0.41570875  0.58292264  0.16613547
   0.41024176  0.58176782  0.50241172
   0.41820314  0.58406205  0.83269789
   0.41661087  0.83338913  0.16591973
   0.41619665  0.83380335  0.50046346
   0.41657772  0.83342228  0.83383449
   0.66679547  0.08339760  0.16591328
   0.66649247  0.08324126  0.50048457
   0.66683006  0.08341586  0.83359721
   0.66708508  0.33278915  0.16614164
   0.66828788  0.32848769  0.50241220
   0.66598648  0.33416563  0.83269455
   0.66666308  0.58333692  0.16760525
   0.66665972  0.58334028  0.83448335
   0.66707736  0.83429125  0.16613547
   0.66823218  0.83975824  0.50241172
   0.66593795  0.83179686  0.83269789
   0.91681434  0.08361276  0.16627505
   0.91699226  0.08399438  0.50024733
   0.91666716  0.08330702  0.83361961
   0.91681824  0.33318176  0.16627743
   0.91703098  0.33296902  0.50026967
   0.91669215  0.33330785  0.83363260
   0.91721085  0.58291492  0.16614164
   0.92151231  0.58171212  0.50241220
   0.91583437  0.58401352  0.83269455
   0.91720899  0.83428387  0.16613941
   0.92148795  0.83975179  0.50240897
   0.91579613  0.83174375  0.83267942
   0.08329462  0.16670537  0.99996161
   0.08330716  0.16669283  0.33299639
   0.08343748  0.16656251  0.66702213
   0.08329818  0.41658738  0.99996886
   0.08331284  0.41661941  0.33299710
   0.08349303  0.41691753  0.66703424
   0.08316967  0.66655224  0.99965627
   0.08449242  0.66712330  0.33250962
   0.08270571  0.66704253  0.66782237
   0.08315856  0.91661838  0.99965050
   0.08448353  0.91737690  0.33250915
   0.08265969  0.91565497  0.66782329
   0.33338162  0.16684144  0.99965050
   0.33262310  0.16551646  0.33250915
   0.33434503  0.16734031  0.66782329
   0.33352441  0.41676564  0.99949919
   0.33231587  0.41616407  0.33302579
   0.33378398  0.41693200  0.66801564
   0.33337151  0.66654939  0.99966189
   0.33262269  0.66712744  0.33250815
   0.33434222  0.66707728  0.66782727
   0.33332687  0.91667313  0.99999717
   0.33332729  0.91667271  0.33258351
   0.33329838  0.91670162  0.66718164
   0.58344776  0.16683032  0.99965627
   0.58287670  0.16550757  0.33250962
   0.58295747  0.16729428  0.66782237
   0.58332653  0.41663088  0.00086718
   0.58189952  0.41378334  0.32979442
   0.59035795  0.43056079  0.66309386
   0.58331255  0.66668745  0.00086703
   0.58187998  0.66812002  0.32979933
   0.59024971  0.65975029  0.66311156
   0.58345061  0.91662849  0.99966189
   0.58287256  0.91737731  0.33250815
   0.58292272  0.91565778  0.66782727
   0.83341262  0.16670181  0.99996886
   0.83338059  0.16668716  0.33299710
   0.83308247  0.16650696  0.66703424
   0.83323944  0.41676056  0.99951588
   0.83385021  0.41614979  0.33302595
   0.83317710  0.41682290  0.66804092
   0.83336912  0.66667347  0.00086718
   0.83621666  0.66810048  0.32979442
   0.81943921  0.65964205  0.66309386
   0.83323436  0.91647559  0.99949919
   0.83383593  0.91768413  0.33302579
   0.83306800  0.91621602  0.66801564
   0.16653668  0.08346332  0.29341767
   0.16699369  0.08300630  0.62724954
   0.16663425  0.08336574  0.96063748
   0.16664297  0.33331518  0.29380465
   0.16739719  0.33369286  0.62696343
   0.16678010  0.33338196  0.96064878
   0.16653076  0.58306398  0.29342107
   0.16702184  0.58401006  0.62724369
   0.16662888  0.58325121  0.96064967
   0.16661418  0.83330762  0.29340218
   0.16650745  0.83326950  0.62701527
   0.16666235  0.83332724  0.96075747
   0.41669238  0.08338582  0.29340218
   0.41673050  0.08349254  0.62701527
   0.41667276  0.08333765  0.96075747
   0.41638438  0.33320390  0.29434251
   0.41911527  0.33507935  0.62773039
   0.41746208  0.33378624  0.96015180
   0.41636898  0.58316850  0.29433542
   0.41904731  0.58410296  0.62773487
   0.41744862  0.58367751  0.96016434
   0.41668723  0.83331277  0.29340140
   0.41670199  0.83329801  0.62702086
   0.41666580  0.83333420  0.96076786
   0.66693602  0.08346923  0.29342107
   0.66598994  0.08297815  0.62724369
   0.66674879  0.08337111  0.96064967
   0.66683627  0.33320141  0.29434320
   0.66602912  0.33497288  0.62773316
   0.66634636  0.33376888  0.96016299
   0.66666405  0.58333595  0.29819551
   0.66666921  0.58333079  0.96112029
   0.66683150  0.83363102  0.29433542
   0.66589704  0.83095269  0.62773487
   0.66632249  0.83255138  0.96016434
   0.91668482  0.08335702  0.29380465
   0.91630714  0.08260281  0.62696343
   0.91661804  0.08321989  0.96064878
   0.91669084  0.33330916  0.29380532
   0.91637027  0.33362973  0.62697507
   0.91662453  0.33337547  0.96065985
   0.91679859  0.58316373  0.29434320
   0.91502712  0.58397088  0.62773316
   0.91623112  0.58365364  0.96016299
   0.91679610  0.83361562  0.29434251
   0.91492065  0.83088473  0.62773039
   0.91621376  0.83253792  0.96015180
   0.08329948  0.16670051  0.12724308
   0.08350780  0.16649220  0.46034369
   0.08330213  0.16669786  0.79374491
   0.08330088  0.41660000  0.12724820
   0.08354058  0.41706008  0.46034229
   0.08332034  0.41661240  0.79375264
   0.08321323  0.66659820  0.12709082
   0.08376719  0.66720281  0.45988705
   0.08308141  0.66663885  0.79426843
   0.08320873  0.91661944  0.12708793
   0.08374549  0.91659052  0.45988867
   0.08305564  0.91643788  0.79426252
   0.33338056  0.16679126  0.12708793
   0.33340948  0.16625451  0.45988867
   0.33356212  0.16694436  0.79426252
   0.33331313  0.41666015  0.12715382
   0.33456336  0.41730098  0.46056115
   0.33353933  0.41678587  0.79429890
   0.33337134  0.66660562  0.12709231
   0.33342715  0.66720823  0.45988210
   0.33354695  0.66666243  0.79427576
   0.33332476  0.91667524  0.12720105
   0.33331873  0.91668127  0.45979340
   0.33331365  0.91668635  0.79391084
   0.58340180  0.16678676  0.12709082
   0.58279719  0.16623280  0.45988705
   0.58336115  0.16691858  0.79426843
   0.58352628  0.41704388  0.12885225
   0.58404201  0.41801893  0.46276386
   0.58433669  0.41858834  0.79046973
   0.58351217  0.66648783  0.12885141
   0.58399640  0.66600360  0.46276701
   0.58426698  0.66573302  0.79048122
   0.58339438  0.91662866  0.12709231
   0.58279177  0.91657285  0.45988210
   0.58333757  0.91645305  0.79427576
   0.83340000  0.16669911  0.12724820
   0.83293992  0.16645941  0.46034229
   0.83338760  0.16667965  0.79375264
   0.83334644  0.41665356  0.12716283
   0.83275818  0.41724182  0.46056007
   0.83326271  0.41673729  0.79431280
   0.83295612  0.66647372  0.12885225
   0.83198107  0.66595799  0.46276386
   0.83141166  0.66566331  0.79046973
   0.83333985  0.91668687  0.12715382
   0.83269902  0.91543664  0.46056115
   0.83321413  0.91646067  0.79429890
   0.66665646  0.58334354  0.50478873
 
 position of ions in cartesian coordinates  (Angst):
   1.62313837  0.93845400  2.59020038
   1.62564862  0.93700470  7.81368291
   1.62280238  0.93864798 13.01388969
  -0.00267151  3.74948488  2.59589245
  -0.00647438  3.74748268  7.80988070
   0.00034520  3.75114114 13.01450161
  -1.62429236  6.56305720  2.59024448
  -1.62422940  6.56646700  7.81358445
  -1.62430482  6.56266794 13.01415182
  -3.24763948  9.37840683  2.59035612
  -3.23981170  9.38310915  7.81314369
  -3.24741858  9.37863319 13.01765407
   4.87288953  0.93669494  2.59035612
   4.87273108  0.92756473  7.81314369
   4.87280395  0.93639045 13.01765407
   3.23976073  3.74504367  2.59377487
   3.19650974  3.69689063  7.84362828
   3.26358825  3.76094319 12.99982331
   1.61451537  6.55988501  2.59371338
   1.55097849  6.54688931  7.84367121
   1.63952546  6.57270723 13.00011167
  -0.00108723  9.37849466  2.59034519
  -0.00916097  9.38315603  7.81325479
  -0.00173340  9.37886772 13.01785627
   8.12272762  0.93850991  2.59024448
   8.11980612  0.93675049  7.81358445
   8.12305850  0.93871533 13.01415182
   6.50614994  3.74502273  2.59380967
   6.54972688  3.69661659  7.84367870
   6.48293113  3.76051290 13.00005947
   4.87281325  6.56454704  2.61665962
   4.87274778  6.56458484 13.02798632
   3.24770187  9.38864659  2.59371338
   3.22718804  9.45016898  7.84367121
   3.24910255  9.36057610 13.00011167
  11.37016339  0.94093121  2.59589245
  11.36999592  0.94522570  7.80988070
  11.37023738  0.93749055 13.01450161
   9.74872015  3.74944102  2.59592967
   9.75286682  3.74704694  7.81022944
   9.74626260  3.75085988 13.01470435
   8.13126151  6.55979813  2.59380967
   8.19497094  6.54626247  7.84367870
   8.10623723  6.57216112 13.00005947
   6.49804889  9.38856349  2.59377487
   6.51812516  9.45009646  7.84362828
   6.49619326  9.35997849 12.99982331
  -0.00075449  1.87600894 15.61143919
  -0.00050998  1.87586777  5.19875249
   0.00203008  1.87440126 10.41357521
  -1.62423567  4.68804107 15.61155245
  -1.62425340  4.68840158  5.19876364
  -1.62384880  4.69175641 10.41376430
  -3.24997153  7.50100572 15.60667226
  -3.23649351  7.50743212  5.19115304
  -3.25918588  7.50652312 10.42606857
  -4.87483976 10.31510994 15.60658225
  -4.86255090 10.32364597  5.19114569
  -4.87506283 10.30426830 10.42608303
   3.24808065  1.87754010 15.60658225
   3.24683267  1.86262961  5.19114569
   3.25735826  1.88315410 10.42608303
   1.62613431  4.69004716 15.60421991
   1.61433861  4.68327739  5.19921150
   1.62842640  4.69191923 10.42908604
   0.00125834  7.50097364 15.60676001
  -0.01222783  7.50747867  5.19113012
   0.01044228  7.50691415 10.42614517
  -1.62441977 10.31572609 15.61199447
  -1.62441171 10.31572144  5.19230659
  -1.62497523 10.31604679 10.41606555
   6.49760075  1.87741503 15.60667226
   6.49877434  1.86252954  5.19115304
   6.48821537  1.88263620 10.42606857
   4.87302708  4.68853069  0.01353844
   4.87298499  4.65648605  5.14876324
   4.87389083  4.84529007 10.35224691
   3.24818371  7.50252730  0.01353610
   3.22026071  7.51864865  5.14883981
   3.38339955  7.42446040 10.35252330
   1.62606665 10.31522378 15.60676001
   1.61369004 10.32365063  5.19113012
   1.62551399 10.30429999 10.42614517
   9.74656777  1.87596881 15.61155245
   9.74624669  1.87580391  5.19876364
   9.74354362  1.87377610 10.41376430
   8.11964152  4.68998996 15.60448044
   8.13154633  4.68311671  5.19921406
   8.11842639  4.69069151 10.42948065
   6.49759818  7.50236997  0.01353844
   6.52532861  7.51842874  5.14876324
   6.36227243  7.42324225 10.35224691
   4.87283861 10.31350315 15.60421991
   4.87280356 10.32710340  5.19921150
   4.87236340 10.31058210 10.42908604
   1.62176066  0.93924942  4.58084801
   1.63066856  0.93410644  9.79264409
   1.62366258  0.93815134 14.99750944
  -0.00018982  3.75094242  4.58688959
   0.00715691  3.75519255  9.78817720
   0.00115823  3.75169393 14.99768592
  -1.62430996  6.56147559  4.58090100
  -1.62407564  6.57212226  9.79255264
  -1.62425140  6.56358252 14.99769972
  -3.24910319  9.37757734  4.58060609
  -3.25024235  9.37714834  9.78898662
  -3.24860474  9.37779818 14.99938277
   4.87287603  0.93837729  4.58060609
   4.87267797  0.93957833  9.78898662
   4.87293400  0.93783521 14.99938277
   3.24576151  3.74969016  4.59528661
   3.26906254  3.77079540  9.80015114
   3.25598193  3.75624347 14.98992693
   1.62149721  6.56265174  4.59517596
   1.65022917  6.57316760  9.80022105
   1.63221934  6.56837986 14.99012274
   0.00040125  9.37763528  4.58059403
   0.00068884  9.37746925  9.78907394
  -0.00001657  9.37787651 14.99954495
   8.12408853  0.93931596  4.58090100
   8.11498541  0.93378969  9.79255264
   8.12229317  0.93821177 14.99769972
   6.50023835  3.74966205  4.59529733
   6.47824031  3.76959725  9.80019432
   6.49018525  3.75604806 14.99010173
   4.87283209  6.56453616  4.65543979
   4.87293267  6.56447809 15.00504705
   3.24879673  9.38121677  4.59517596
   3.25405571  9.35107624  9.80022105
   3.24919709  9.36906707 14.99012274
  11.37014197  0.93805324  4.58688959
  11.37013461  0.92956572  9.78817720
  11.37016516  0.93651004 14.99768592
   9.74623710  3.75087461  4.58690001
   9.73998863  3.75448216  9.78835897
   9.74494451  3.75162088 14.99785860
   8.12428795  6.56259806  4.59529733
   8.09602454  6.57168132  9.80019432
   8.11373096  6.56811129 14.99010173
   6.49702530  9.38104341  4.59528661
   6.49039815  9.35031152  9.80015114
   6.49646018  9.36891561 14.98992693
  -0.00065970  1.87595421  1.98652386
   0.00340068  1.87360994  7.18690351
  -0.00060799  1.87592435 12.39197622
  -1.62428264  4.68818315  1.98660384
  -1.62415711  4.69336059  7.18688157
  -1.62411034  4.68832267 12.39209682
  -3.24970402  7.50152290  1.98414684
  -3.24643402  7.50832684  7.17977432
  -3.25168103  7.50198032 12.40014944
  -4.87419470 10.31512194  1.98410169
  -4.86703198 10.31479642  7.17979970
  -4.87500443 10.31307873 12.40005706
   3.24839279  1.87697546  1.98410169
   3.25225606  1.87093511  7.17979970
   3.24975740  1.87869831 12.40005706
   1.62407435  4.68886001  1.98513033
   1.63615669  4.69607152  7.19029846
   1.62619678  4.69027479 12.40062505
   0.00089085  7.50160642  1.98417012
  -0.00229930  7.50838788  7.17969706
   0.00280366  7.50224565 12.40026382
  -1.62446089 10.31574983  1.98586764
  -1.62457844 10.31581770  7.17831233
  -1.62467760 10.31587495 12.39456662
   6.49728662  1.87692478  1.98414684
   6.49302923  1.87069091  7.17977432
   6.49590197  1.87840821 12.40014944
   4.87293945  4.69317831  2.01164637
   4.87330599  4.70415094  7.22468727
   4.87343556  4.71055877 12.34084393
   3.25207466  7.50028086  2.01163316
   3.26151309  7.49483158  7.22473637
   3.26678708  7.49178664 12.34102326
   1.62533490 10.31522564  1.98417012
   1.61786691 10.31459766  7.17969706
   1.62573772 10.31324948 12.40026382
   9.74642124  1.87593844  1.98660384
   9.74200020  1.87324102  7.18688157
   9.74638656  1.87571947 12.39209682
   8.12172705  4.68878587  1.98527108
   8.11026092  4.69540585  7.19028155
   8.12009514  4.68972806 12.40084218
   6.49352941  7.50012205  2.01164637
   6.48421010  7.49431830  7.22468727
   6.47872555  7.49100218 12.34084393
   4.87283673 10.31588069  1.98513033
   4.87263255 10.30181133  7.19029846
   4.87267272 10.31333523 12.40062505
   4.87268419  6.56462156  7.88078117
 


--------------------------------------------------------------------------------------------------------


 use parallel FFT for orbitals z direction half grid
 k-point   1 :   0.0000 0.0000 0.0000  plane waves:   20744

 maximum and minimum number of plane-waves per node :      5189     5183

 maximum number of plane-waves:     20744
 maximum index in each direction: 
   IXMAX=   21   IYMAX=   21   IZMAX=   25
   IXMIN=  -21   IYMIN=  -21   IZMIN=    0


 real space projection operators:
  total allocation   :      30031.00 KBytes
  max/ min on nodes  :       7648.17       7422.58


 parallel 3D FFT for wavefunctions:
    minimum data exchange during FFTs selected (reduces bandwidth)
 parallel 3D FFT for charge:
    minimum data exchange during FFTs selected (reduces bandwidth)

 
 Radii for the augmentation spheres in the non-local exchange
 for species   1 augmentation radius   1.190 (default was   0.952)
       energy cutoff for augmentation   1600.0
 for species   2 augmentation radius   0.902 (default was   0.722)
       energy cutoff for augmentation   1600.0
 for species   3 augmentation radius   1.338 (default was   1.070)
       energy cutoff for augmentation   1600.0

 real space projection operators:
  total allocation   :      22021.09 KBytes
  max/ min on nodes  :       5540.62       5422.78

[...]
      9.74642      1.87594      1.98660        -0.003598     -0.002471     -0.033050
      9.74200      1.87324      7.18688        -0.018210     -0.010567      0.092373
      9.74639      1.87572     12.39210        -0.020645     -0.012186     -0.068647
      8.12173      4.68879      1.98527        -0.027349      0.015790     -0.041057
      8.11026      4.69541      7.19028        -0.152452      0.088018      0.180671
      8.12010      4.68973     12.40084        -0.166949      0.096388     -0.160801
      6.49353      7.50012      2.01165        -0.033447     -0.018818     -0.023666
      6.48421      7.49432      7.22469        -0.572667     -0.330096      0.414829
      6.47873      7.49100     12.34084        -0.372363     -0.215402     -0.671430
      4.87284     10.31588      1.98513        -0.000002     -0.032048     -0.041570
      4.87263     10.30181      7.19030        -0.001147     -0.176128      0.180266
      4.87267     10.31334     12.40063        -0.000178     -0.193117     -0.160586
      4.87268      6.56462      7.88078         0.004144     -0.002392     -0.752446
 -----------------------------------------------------------------------------------
    total drift:                               -0.000900      0.000321     -0.032400


--------------------------------------------------------------------------------------------------------



  FREE ENERGIE OF THE ION-ELECTRON SYSTEM (eV)
  ---------------------------------------------------
  free  energy   TOTEN  =     -1219.54090088 eV

  energy  without entropy=    -1219.54090088  energy(sigma->0) =    -1219.54090088
 


--------------------------------------------------------------------------------------------------------


    POTLOK:  cpu time      0.2238: real time      0.2249


--------------------------------------------------------------------------------------------------------


 writing wavefunctions
     LOOP+:  cpu time   9634.5899: real time   9717.3477
    4ORBIT:  cpu time      0.0000: real time      0.0000



 total charge

# of ion       s       p       d       tot
------------------------------------------
    1        0.411   0.478   9.951  10.841
    2        0.412   0.477   9.950  10.838
    3        0.410   0.475   9.950  10.835
    4        0.411   0.478   9.951  10.839
    5        0.411   0.473   9.948  10.832
    6        0.410   0.476   9.950  10.836
    7        0.411   0.478   9.951  10.841
    8        0.412   0.477   9.950  10.838
    9        0.410   0.475   9.950  10.835
   10        0.411   0.478   9.951  10.841
   11        0.412   0.478   9.951  10.841
   12        0.411   0.478   9.951  10.839
   13        0.411   0.478   9.951  10.841
   14        0.412   0.478   9.951  10.841
   15        0.411   0.478   9.951  10.839
   16        0.411   0.477   9.950  10.839
   17        0.416   0.478   9.947  10.841
   18        0.408   0.471   9.947  10.827
   19        0.411   0.477   9.950  10.839
   20        0.416   0.478   9.947  10.841
   21        0.408   0.472   9.948  10.827
   22        0.411   0.478   9.951  10.841
   23        0.412   0.478   9.951  10.841
   24        0.411   0.478   9.951  10.839
   25        0.411   0.478   9.951  10.841
   26        0.412   0.477   9.950  10.838
   27        0.410   0.475   9.950  10.835
   28        0.411   0.477   9.950  10.839
   29        0.416   0.478   9.947  10.841
   30        0.408   0.472   9.948  10.827
   31        0.409   0.469   9.947  10.825
   32        0.414   0.483   9.952  10.849
   33        0.411   0.477   9.950  10.839
   34        0.416   0.478   9.947  10.841
   35        0.408   0.472   9.948  10.827
   36        0.411   0.478   9.951  10.839
   37        0.411   0.473   9.948  10.832
   38        0.410   0.476   9.950  10.836
   39        0.411   0.478   9.951  10.840
   40        0.411   0.473   9.948  10.832
   41        0.410   0.476   9.950  10.836
   42        0.411   0.477   9.950  10.839
   43        0.416   0.478   9.947  10.841
   44        0.408   0.472   9.948  10.827
   45        0.411   0.477   9.950  10.839
   46        0.416   0.478   9.947  10.841
   47        0.408   0.471   9.947  10.827
   48        0.411   0.478   9.951  10.839
   49        0.411   0.478   9.951  10.840
   50        0.410   0.473   9.948  10.831
   51        0.411   0.478   9.951  10.839
   52        0.411   0.478   9.951  10.840
   53        0.410   0.473   9.949  10.831
   54        0.410   0.476   9.950  10.836
   55        0.412   0.479   9.951  10.842
   56        0.408   0.470   9.947  10.825
   57        0.410   0.476   9.950  10.836
   58        0.412   0.479   9.951  10.842
   59        0.408   0.470   9.947  10.824
   60        0.410   0.476   9.950  10.836
   61        0.412   0.479   9.951  10.842
   62        0.408   0.470   9.947  10.824
   63        0.409   0.474   9.949  10.833
   64        0.412   0.478   9.951  10.841
   65        0.411   0.477   9.949  10.837
   66        0.410   0.476   9.950  10.836
   67        0.412   0.479   9.951  10.842
   68        0.408   0.470   9.947  10.825
   69        0.411   0.478   9.951  10.840
   70        0.411   0.478   9.951  10.840
   71        0.409   0.474   9.949  10.832
   72        0.410   0.476   9.950  10.836
   73        0.412   0.479   9.951  10.842
   74        0.408   0.470   9.947  10.825
   75        0.411   0.476   9.949  10.835
   76        0.416   0.473   9.947  10.836
   77        0.435   0.417   9.882  10.734
   78        0.411   0.476   9.949  10.835
   79        0.416   0.473   9.947  10.836
   80        0.435   0.418   9.882  10.734
   81        0.410   0.476   9.950  10.836
   82        0.412   0.479   9.951  10.842
   83        0.408   0.470   9.947  10.825
   84        0.411   0.478   9.951  10.839
   85        0.411   0.478   9.951  10.840
   86        0.410   0.473   9.949  10.831
   87        0.409   0.474   9.949  10.833
   88        0.412   0.478   9.951  10.841
   89        0.411   0.477   9.949  10.837
   90        0.411   0.476   9.949  10.835
   91        0.416   0.473   9.947  10.836
   92        0.435   0.417   9.882  10.734
   93        0.409   0.474   9.949  10.833
   94        0.412   0.478   9.951  10.841
   95        0.411   0.477   9.949  10.837
   96        1.575   3.529   0.000   5.105
   97        1.575   3.521   0.000   5.097
   98        1.575   3.528   0.000   5.103
   99        1.575   3.529   0.000   5.104
  100        1.575   3.524   0.000   5.100
  101        1.575   3.529   0.000   5.103
  102        1.575   3.529   0.000   5.105
  103        1.575   3.521   0.000   5.097
  104        1.575   3.529   0.000   5.103
  105        1.575   3.529   0.000   5.104
  106        1.575   3.527   0.000   5.102
  107        1.575   3.529   0.000   5.104
  108        1.575   3.529   0.000   5.104
  109        1.575   3.527   0.000   5.102
  110        1.575   3.529   0.000   5.104
  111        1.576   3.529   0.000   5.104
  112        1.579   3.513   0.000   5.092
  113        1.575   3.526   0.000   5.101
  114        1.576   3.529   0.000   5.104
  115        1.579   3.513   0.000   5.092
  116        1.575   3.526   0.000   5.101
  117        1.575   3.529   0.000   5.104
  118        1.575   3.527   0.000   5.102
  119        1.575   3.529   0.000   5.104
  120        1.575   3.529   0.000   5.105
  121        1.575   3.521   0.000   5.097
  122        1.575   3.529   0.000   5.103
  123        1.576   3.529   0.000   5.104
  124        1.579   3.513   0.000   5.092
  125        1.575   3.526   0.000   5.101
  126        1.576   3.520   0.000   5.097
  127        1.575   3.527   0.000   5.102
  128        1.576   3.529   0.000   5.104
  129        1.579   3.513   0.000   5.092
  130        1.575   3.526   0.000   5.101
  131        1.575   3.529   0.000   5.104
  132        1.575   3.524   0.000   5.100
  133        1.575   3.529   0.000   5.103
  134        1.575   3.529   0.000   5.104
  135        1.575   3.524   0.000   5.100
  136        1.575   3.529   0.000   5.103
  137        1.576   3.529   0.000   5.104
  138        1.579   3.513   0.000   5.092
  139        1.575   3.526   0.000   5.101
  140        1.576   3.529   0.000   5.104
  141        1.579   3.513   0.000   5.092
  142        1.575   3.526   0.000   5.101
  143        1.575   3.530   0.000   5.105
  144        1.576   3.525   0.000   5.101
  145        1.575   3.528   0.000   5.103
  146        1.575   3.530   0.000   5.105
  147        1.576   3.525   0.000   5.101
  148        1.575   3.528   0.000   5.103
  149        1.575   3.529   0.000   5.104
  150        1.576   3.529   0.000   5.105
  151        1.575   3.528   0.000   5.103
  152        1.575   3.529   0.000   5.104
  153        1.576   3.529   0.000   5.105
  154        1.575   3.528   0.000   5.103
  155        1.575   3.529   0.000   5.104
  156        1.576   3.529   0.000   5.105
  157        1.575   3.528   0.000   5.103
  158        1.575   3.528   0.000   5.103
  159        1.576   3.524   0.000   5.101
  160        1.575   3.529   0.000   5.104
  161        1.575   3.529   0.000   5.104
  162        1.576   3.529   0.000   5.105
  163        1.575   3.528   0.000   5.103
  164        1.575   3.530   0.000   5.105
  165        1.575   3.529   0.000   5.104
  166        1.575   3.528   0.000   5.103
  167        1.575   3.529   0.000   5.104
  168        1.576   3.529   0.000   5.105
  169        1.575   3.528   0.000   5.103
  170        1.575   3.526   0.000   5.101
  171        1.590   3.527   0.000   5.117
  172        1.577   3.514   0.000   5.091
  173        1.575   3.526   0.000   5.101
  174        1.590   3.527   0.000   5.117
  175        1.577   3.514   0.000   5.091
  176        1.575   3.529   0.000   5.104
  177        1.576   3.529   0.000   5.105
  178        1.575   3.528   0.000   5.103
  179        1.575   3.530   0.000   5.105
  180        1.576   3.525   0.000   5.101
  181        1.575   3.528   0.000   5.103
  182        1.575   3.528   0.000   5.103
  183        1.576   3.524   0.000   5.101
  184        1.575   3.529   0.000   5.104
  185        1.575   3.526   0.000   5.101
  186        1.590   3.527   0.000   5.117
  187        1.577   3.514   0.000   5.091
  188        1.575   3.528   0.000   5.103
  189        1.576   3.524   0.000   5.101
  190        1.575   3.529   0.000   5.104
  191        2.156   6.031   2.390  10.577
--------------------------------------------------
tot        190.996 386.054 947.3911524.440



 magnetization (x)

# of ion       s       p       d       tot
------------------------------------------
    1       -0.003  -0.000   0.000  -0.003
    2       -0.004  -0.000   0.000  -0.004
    3       -0.003  -0.000   0.000  -0.003
    4       -0.003  -0.000   0.000  -0.003
    5       -0.004  -0.000   0.000  -0.004
    6       -0.003  -0.000   0.000  -0.003
    7       -0.003  -0.000   0.000  -0.003
    8       -0.004  -0.000   0.000  -0.004
    9       -0.003  -0.000   0.000  -0.003
   10       -0.003  -0.000   0.000  -0.003
   11       -0.004  -0.000   0.000  -0.004
   12       -0.003  -0.000   0.000  -0.003
   13       -0.003  -0.000   0.000  -0.003
   14       -0.004  -0.000   0.000  -0.004
   15       -0.003  -0.000   0.000  -0.003
   16       -0.003  -0.000   0.000  -0.003
   17       -0.003   0.000   0.001  -0.003
   18       -0.003  -0.000   0.001  -0.002
   19       -0.003  -0.000   0.000  -0.003
   20       -0.003   0.000   0.001  -0.003
   21       -0.003  -0.000   0.001  -0.002
   22       -0.003  -0.000   0.000  -0.003
   23       -0.004  -0.000   0.000  -0.004
   24       -0.003  -0.000   0.000  -0.003
   25       -0.003  -0.000   0.000  -0.003
   26       -0.004  -0.000   0.000  -0.004
   27       -0.003  -0.000   0.000  -0.003
   28       -0.003  -0.000   0.000  -0.003
   29       -0.003   0.000   0.001  -0.003
   30       -0.003  -0.000   0.001  -0.002
   31       -0.003  -0.000   0.000  -0.003
   32       -0.004  -0.001  -0.000  -0.006
   33       -0.003  -0.000   0.000  -0.003
   34       -0.003   0.000   0.001  -0.003
   35       -0.003  -0.000   0.001  -0.002
   36       -0.003  -0.000   0.000  -0.003
   37       -0.004  -0.000   0.000  -0.004
   38       -0.003  -0.000   0.000  -0.003
   39       -0.003  -0.000   0.000  -0.003
   40       -0.004  -0.000   0.000  -0.004
   41       -0.003  -0.000   0.000  -0.003
   42       -0.003  -0.000   0.000  -0.003
   43       -0.003   0.000   0.001  -0.003
   44       -0.003  -0.000   0.001  -0.002
   45       -0.003  -0.000   0.000  -0.003
   46       -0.003   0.000   0.001  -0.003
   47       -0.003  -0.000   0.001  -0.002
   48       -0.003  -0.000   0.000  -0.003
   49       -0.004  -0.000   0.000  -0.004
   50       -0.004  -0.000   0.000  -0.004
   51       -0.003  -0.000   0.000  -0.003
   52       -0.004  -0.000   0.000  -0.004
   53       -0.004  -0.000   0.000  -0.004
   54       -0.003  -0.000   0.000  -0.003
   55       -0.004  -0.000   0.000  -0.004
   56       -0.002   0.002   0.002   0.002
   57       -0.003  -0.000   0.000  -0.003
   58       -0.004  -0.000   0.000  -0.004
   59       -0.002   0.002   0.002   0.002
   60       -0.003  -0.000   0.000  -0.003
   61       -0.004  -0.000   0.000  -0.004
   62       -0.002   0.002   0.002   0.002
   63       -0.003  -0.000   0.000  -0.003
   64       -0.004  -0.000   0.000  -0.004
   65       -0.004  -0.001   0.001  -0.005
   66       -0.003  -0.000   0.000  -0.003
   67       -0.004  -0.000   0.000  -0.004
   68       -0.002   0.002   0.002   0.002
   69       -0.003  -0.000   0.000  -0.003
   70       -0.004  -0.000   0.000  -0.004
   71       -0.003   0.000   0.000  -0.002
   72       -0.003  -0.000   0.000  -0.003
   73       -0.004  -0.000   0.000  -0.004
   74       -0.002   0.002   0.002   0.002
   75       -0.003  -0.000   0.000  -0.003
   76       -0.003   0.001   0.001  -0.001
   77        0.027   0.045   0.016   0.089
   78       -0.003  -0.000   0.000  -0.003
   79       -0.003   0.001   0.001  -0.001
   80        0.027   0.045   0.016   0.089
   81       -0.003  -0.000   0.000  -0.003
   82       -0.004  -0.000   0.000  -0.004
   83       -0.002   0.002   0.002   0.002
   84       -0.003  -0.000   0.000  -0.003
   85       -0.004  -0.000   0.000  -0.004
   86       -0.004  -0.000   0.000  -0.004
   87       -0.003  -0.000   0.000  -0.003
   88       -0.004  -0.000   0.000  -0.004
   89       -0.004  -0.001   0.001  -0.005
   90       -0.003  -0.000   0.000  -0.003
   91       -0.003   0.001   0.001  -0.001
   92        0.027   0.045   0.016   0.089
   93       -0.003  -0.000   0.000  -0.003
   94       -0.004  -0.000   0.000  -0.004
   95       -0.004  -0.001   0.001  -0.005
   96       -0.002   0.002   0.000  -0.001
   97       -0.002   0.004   0.000   0.002
   98       -0.002   0.002   0.000  -0.000
   99       -0.002   0.002   0.000  -0.001
  100       -0.002   0.002   0.000  -0.000
  101       -0.002   0.002   0.000  -0.000
  102       -0.002   0.002   0.000  -0.001
  103       -0.002   0.004   0.000   0.002
  104       -0.002   0.002   0.000  -0.000
  105       -0.002   0.002   0.000  -0.001
  106       -0.002   0.002   0.000   0.000
  107       -0.002   0.002   0.000  -0.000
  108       -0.002   0.002   0.000  -0.001
  109       -0.002   0.002   0.000   0.000
  110       -0.002   0.002   0.000  -0.000
  111       -0.003   0.002   0.000  -0.001
  112        0.001   0.042   0.000   0.043
  113       -0.002   0.003   0.000   0.001
  114       -0.003   0.002   0.000  -0.001
  115        0.001   0.041   0.000   0.043
  116       -0.002   0.003   0.000   0.001
  117       -0.002   0.002   0.000  -0.001
  118       -0.002   0.002   0.000   0.000
  119       -0.002   0.002   0.000  -0.000
  120       -0.002   0.002   0.000  -0.001
  121       -0.002   0.004   0.000   0.002
  122       -0.002   0.002   0.000  -0.000
  123       -0.003   0.002   0.000  -0.001
  124        0.001   0.041   0.000   0.043
  125       -0.002   0.003   0.000   0.001
  126       -0.002   0.003   0.000   0.001
  127       -0.002   0.001   0.000  -0.001
  128       -0.003   0.002   0.000  -0.001
  129        0.001   0.041   0.000   0.043
  130       -0.002   0.003   0.000   0.001
  131       -0.002   0.002   0.000  -0.001
  132       -0.002   0.002   0.000  -0.000
  133       -0.002   0.002   0.000  -0.000
  134       -0.002   0.002   0.000  -0.001
  135       -0.002   0.002   0.000  -0.000
  136       -0.002   0.002   0.000  -0.000
  137       -0.003   0.002   0.000  -0.001
  138        0.001   0.041   0.000   0.043
  139       -0.002   0.003   0.000   0.001
  140       -0.003   0.002   0.000  -0.001
  141        0.001   0.042   0.000   0.043
  142       -0.002   0.003   0.000   0.001
  143       -0.002   0.001   0.000  -0.001
  144       -0.003   0.002   0.000  -0.001
  145       -0.002   0.002   0.000  -0.001
  146       -0.002   0.001   0.000  -0.001
  147       -0.003   0.002   0.000  -0.001
  148       -0.002   0.002   0.000  -0.001
  149       -0.002   0.002   0.000  -0.001
  150       -0.002   0.002   0.000  -0.000
  151       -0.002   0.003   0.000   0.001
  152       -0.002   0.002   0.000  -0.001
  153       -0.002   0.002   0.000  -0.000
  154       -0.002   0.003   0.000   0.001
  155       -0.002   0.002   0.000  -0.001
  156       -0.002   0.002   0.000  -0.000
  157       -0.002   0.003   0.000   0.001
  158       -0.002   0.002   0.000  -0.000
  159       -0.003   0.002   0.000  -0.000
  160       -0.002   0.002   0.000   0.000
  161       -0.002   0.002   0.000  -0.001
  162       -0.002   0.002   0.000  -0.000
  163       -0.002   0.003   0.000   0.001
  164       -0.002   0.001   0.000  -0.001
  165       -0.002   0.002   0.000  -0.001
  166       -0.002   0.002   0.000  -0.000
  167       -0.002   0.002   0.000  -0.001
  168       -0.002   0.002   0.000  -0.000
  169       -0.002   0.003   0.000   0.001
  170       -0.002   0.002   0.000  -0.001
  171       -0.001   0.030   0.000   0.028
  172       -0.000   0.027   0.000   0.027
  173       -0.002   0.002   0.000  -0.001
  174       -0.001   0.030   0.000   0.028
  175       -0.000   0.027   0.000   0.027
  176       -0.002   0.002   0.000  -0.001
  177       -0.002   0.002   0.000  -0.000
  178       -0.002   0.003   0.000   0.001
  179       -0.002   0.001   0.000  -0.001
  180       -0.003   0.002   0.000  -0.001
  181       -0.002   0.002   0.000  -0.001
  182       -0.002   0.002   0.000  -0.000
  183       -0.003   0.002   0.000  -0.000
  184       -0.002   0.002   0.000   0.000
  185       -0.002   0.002   0.000  -0.001
  186       -0.001   0.030   0.000   0.028
  187       -0.000   0.027   0.000   0.027
  188       -0.002   0.002   0.000  -0.000
  189       -0.003   0.002   0.000  -0.000
  190       -0.002   0.002   0.000   0.000
  191        0.027   0.033   1.217   1.277
--------------------------------------------------
tot         -0.372   0.755   1.311   1.693
 

 total amount of memory used by VASP MPI-rank0   245655. kBytes
=======================================================================

   base      :      30000. kBytes
   nonlr-proj:      16061. kBytes
   fftplans  :       3819. kBytes
   grid      :       8407. kBytes
   one-center:        746. kBytes
   HF        :        129. kBytes
   wavefun   :       7416. kBytes
   fock_wrk  :     179077. kBytes
 
  
  
 General timing and accounting informations for this job:
 ========================================================
  
                  Total CPU time used (sec):     9675.034
                            User time (sec):     9648.126
                          System time (sec):       26.908
                         Elapsed time (sec):     9779.036
  
                   Maximum memory used (kb):     1011192.
                   Average memory used (kb):          N/A
  
                          Minor page faults:      7025770
                          Major page faults:          454
                 Voluntary context switches:        18900
