  191  191   30    2
  0.1195271E+02  0.1299435E-08  0.1299435E-08  0.1561204E-08  0.2000000E-15
  1.000000000000000E-004
  CAR 
 zno                                     
   1722      1   1056
 
  0.0000000E+00  0.0000000E+00  0.0000000E+00  0.1000000E+01
      1        -67.995978      -66.594879   1.000000   1.000000
      2        -40.362152      -39.040520   1.000000   1.000000
      3        -40.362140      -39.040512   1.000000   1.000000
      4        -40.058431      -37.644739   1.000000   1.000000
      5        -21.993667      -21.926276   1.000000   1.000000
      6        -21.604892      -21.516526   1.000000   1.000000
      7        -21.604737      -21.516366   1.000000   1.000000
      8        -20.863099      -20.859055   1.000000   1.000000
      9        -20.738195      -20.727984   1.000000   1.000000
     10        -20.663163      -20.660739   1.000000   1.000000
     11        -20.663132      -20.660708   1.000000   1.000000
     12        -20.608274      -20.603146   1.000000   1.000000
     13        -20.577923      -20.575528   1.000000   1.000000
     14        -20.577917      -20.575521   1.000000   1.000000
     15        -20.562604      -20.555746   1.000000   1.000000
     16        -20.541780      -20.539532   1.000000   1.000000
     17        -20.461926      -20.458715   1.000000   1.000000
     18        -20.461915      -20.458705   1.000000   1.000000
     19        -20.406459      -20.401550   1.000000   1.000000
     20        -20.380929      -20.377376   1.000000   1.000000
     21        -20.380915      -20.377362   1.000000   1.000000
     22        -20.377156      -20.375151   1.000000   1.000000
     23        -20.377155      -20.375150   1.000000   1.000000
     24        -20.332774      -20.329526   1.000000   1.000000
     25        -20.327409      -20.325381   1.000000   1.000000
     26        -20.327403      -20.325376   1.000000   1.000000
     27        -20.326119      -20.322681   1.000000   1.000000
     28        -20.320019      -20.318409   1.000000   1.000000
     29        -20.306298      -20.304960   1.000000   1.000000
     30        -20.294718      -20.293472   1.000000   1.000000
     31        -20.294710      -20.293464   1.000000   1.000000
     32        -20.289786      -20.285197   1.000000   1.000000
     33        -20.274506      -20.272041   1.000000   1.000000
     34        -20.260252      -20.252314   1.000000   1.000000
     35        -20.217500      -20.215100   1.000000   1.000000
     36        -20.217489      -20.215088   1.000000   1.000000
     37        -20.203091      -20.200879   1.000000   1.000000
     38        -20.203081      -20.200869   1.000000   1.000000
     39        -20.200978      -20.198334   1.000000   1.000000
     40        -20.181989      -20.180377   1.000000   1.000000
     41        -20.157679      -20.156353   1.000000   1.000000
     42        -20.157675      -20.156349   1.000000   1.000000
     43        -20.141017      -20.138709   1.000000   1.000000
     44        -20.141015      -20.138707   1.000000   1.000000
     45        -20.135760      -20.133608   1.000000   1.000000
     46        -20.103982      -20.099190   1.000000   1.000000
     47        -20.103975      -20.099183   1.000000   1.000000
     48        -20.082625      -20.081057   1.000000   1.000000
     49        -20.078890      -20.072177   1.000000   1.000000
     50        -20.056249      -20.052745   1.000000   1.000000
     51        -20.056245      -20.052741   1.000000   1.000000
     52        -20.051503      -20.050328   1.000000   1.000000
     53        -20.039665      -20.033059   1.000000   1.000000
     54        -20.039665      -20.033059   1.000000   1.000000
     55        -20.020117      -20.018701   1.000000   1.000000
     56        -20.020110      -20.018694   1.000000   1.000000
     57        -20.017413      -20.013186   1.000000   1.000000
     58        -20.009532      -20.008512   1.000000   1.000000
     59        -20.009530      -20.008511   1.000000   1.000000
     60        -20.006054      -20.004723   1.000000   1.000000
     61        -20.003329      -20.001673   1.000000   1.000000
     62        -20.003324      -20.001668   1.000000   1.000000
     63        -19.999899      -19.998672   1.000000   1.000000
     64        -19.995661      -19.992982   1.000000   1.000000
     65        -19.995648      -19.992970   1.000000   1.000000
     66        -19.976124      -19.974334   1.000000   1.000000
     67        -19.970873      -19.968034   1.000000   1.000000
     68        -19.965874      -19.959618   1.000000   1.000000
     69        -19.965871      -19.959614   1.000000   1.000000
     70        -19.942988      -19.941336   1.000000   1.000000
     71        -19.917174      -19.912515   1.000000   1.000000
     72        -19.917170      -19.912510   1.000000   1.000000
     73        -19.912658      -19.908029   1.000000   1.000000
     74        -19.912657      -19.908028   1.000000   1.000000
     75        -19.904814      -19.903635   1.000000   1.000000
     76        -19.904813      -19.903634   1.000000   1.000000
     77        -19.900360      -19.897175   1.000000   1.000000
     78        -19.894974      -19.893162   1.000000   1.000000
     79        -19.889112      -19.887128   1.000000   1.000000
     80        -19.875926      -19.873657   1.000000   1.000000
     81        -19.875920      -19.873651   1.000000   1.000000
     82        -19.872514      -19.871153   1.000000   1.000000
     83        -19.858752      -19.857332   1.000000   1.000000
     84        -19.858749      -19.857328   1.000000   1.000000
     85        -19.850970      -19.849335   1.000000   1.000000
     86        -19.850957      -19.849322   1.000000   1.000000
     87        -19.840979      -19.839879   1.000000   1.000000
     88        -19.840967      -19.839867   1.000000   1.000000
     89        -19.839879      -19.838694   1.000000   1.000000
     90        -19.835079      -19.834058   1.000000   1.000000
     91        -19.785781      -19.783870   1.000000   1.000000
     92        -19.778665      -19.775513   1.000000   1.000000
     93        -19.778660      -19.775508   1.000000   1.000000
     94        -19.766418      -19.764366   1.000000   1.000000
     95        -19.752734      -19.751675   1.000000   1.000000
     96        -19.752731      -19.751672   1.000000   1.000000
     97        -19.748198      -19.746905   1.000000   1.000000
     98        -19.748193      -19.746900   1.000000   1.000000
     99        -19.745133      -19.744156   1.000000   1.000000
    100         -8.299798       -8.258250   1.000000   1.000000
    101         -8.299699       -8.258142   1.000000   1.000000
    102         -8.244667       -8.217192   1.000000   1.000000
    103         -8.226976       -8.207268   1.000000   1.000000
    104         -8.226891       -8.207188   1.000000   1.000000
    105         -8.183635       -8.165857   1.000000   1.000000
    106         -8.174622       -8.165777   1.000000   1.000000
    107         -8.174533       -8.161196   1.000000   1.000000
    108         -8.154353       -8.141030   1.000000   1.000000
    109         -8.124169       -8.122016   1.000000   1.000000
    110         -8.124163       -8.122010   1.000000   1.000000
    111         -8.112431       -8.113087   1.000000   1.000000
    112         -8.096737       -8.086665   1.000000   1.000000
    113         -8.096717       -8.086645   1.000000   1.000000
    114         -8.073325       -8.067483   1.000000   1.000000
    115         -8.057053       -8.046314   1.000000   1.000000
    116         -8.057025       -8.046293   1.000000   1.000000
    117         -8.030258       -8.027831   1.000000   1.000000
    118         -8.029112       -8.027813   1.000000   1.000000
    119         -8.029096       -8.025600   1.000000   1.000000
    120         -8.023932       -8.018630   1.000000   1.000000
    121         -8.023914       -8.018606   1.000000   1.000000
    122         -8.010212       -8.000476   1.000000   1.000000
    123         -7.990655       -7.988322   1.000000   1.000000
    124         -7.990651       -7.985016   1.000000   1.000000
    125         -7.988287       -7.985015   1.000000   1.000000
    126         -7.955558       -7.947564   1.000000   1.000000
    127         -7.953272       -7.947550   1.000000   1.000000
    128         -7.953248       -7.938688   1.000000   1.000000
    129         -7.937719       -7.934150   1.000000   1.000000
    130         -7.934549       -7.928626   1.000000   1.000000
    131         -7.934182       -7.914253   1.000000   1.000000
    132         -7.934158       -7.914224   1.000000   1.000000
    133         -7.902206       -7.900338   1.000000   1.000000
    134         -7.902165       -7.900298   1.000000   1.000000
    135         -7.875066       -7.874655   1.000000   1.000000
    136         -7.873923       -7.868936   1.000000   1.000000
    137         -7.873869       -7.868885   1.000000   1.000000
    138         -7.838274       -7.837684   1.000000   1.000000
    139         -7.838249       -7.836982   1.000000   1.000000
    140         -7.837129       -7.836958   1.000000   1.000000
    141         -7.833750       -7.829282   1.000000   1.000000
    142         -7.819588       -7.811545   1.000000   1.000000
    143         -7.805604       -7.801619   1.000000   1.000000
    144         -7.805598       -7.801613   1.000000   1.000000
    145         -7.804197       -7.798648   1.000000   1.000000
    146         -7.777193       -7.775431   1.000000   1.000000
    147         -7.777157       -7.771758   1.000000   1.000000
    148         -7.775776       -7.771715   1.000000   1.000000
    149         -7.771563       -7.769555   1.000000   1.000000
    150         -7.762993       -7.761424   1.000000   1.000000
    151         -7.762943       -7.761376   1.000000   1.000000
    152         -7.757416       -7.755580   1.000000   1.000000
    153         -7.757380       -7.755533   1.000000   1.000000
    154         -7.754998       -7.750663   1.000000   1.000000
    155         -7.754959       -7.750633   1.000000   1.000000
    156         -7.740721       -7.739186   1.000000   1.000000
    157         -7.737844       -7.735184   1.000000   1.000000
    158         -7.737803       -7.735142   1.000000   1.000000
    159         -7.736172       -7.733910   1.000000   1.000000
    160         -7.718850       -7.716068   1.000000   1.000000
    161         -7.718799       -7.716019   1.000000   1.000000
    162         -7.715048       -7.712462   1.000000   1.000000
    163         -7.706079       -7.705172   1.000000   1.000000
    164         -7.704440       -7.701883   1.000000   1.000000
    165         -7.704386       -7.701831   1.000000   1.000000
    166         -7.698964       -7.696822   1.000000   1.000000
    167         -7.697831       -7.696490   1.000000   1.000000
    168         -7.697788       -7.696448   1.000000   1.000000
    169         -7.692286       -7.683791   1.000000   1.000000
    170         -7.682370       -7.681309   1.000000   1.000000
    171         -7.682330       -7.681267   1.000000   1.000000
    172         -7.678025       -7.676195   1.000000   1.000000
    173         -7.674763       -7.673570   1.000000   1.000000
    174         -7.674734       -7.673541   1.000000   1.000000
    175         -7.670098       -7.667324   1.000000   1.000000
    176         -7.666137       -7.662801   1.000000   1.000000
    177         -7.666092       -7.662752   1.000000   1.000000
    178         -7.653839       -7.651341   1.000000   1.000000
    179         -7.653794       -7.651297   1.000000   1.000000
    180         -7.650261       -7.650019   1.000000   1.000000
    181         -7.645889       -7.642446   1.000000   1.000000
    182         -7.645863       -7.642421   1.000000   1.000000
    183         -7.636203       -7.635275   1.000000   1.000000
    184         -7.635513       -7.632737   1.000000   1.000000
    185         -7.635457       -7.632681   1.000000   1.000000
    186         -7.629503       -7.626753   1.000000   1.000000
    187         -7.628711       -7.626705   1.000000   1.000000
    188         -7.628661       -7.623196   1.000000   1.000000
    189         -7.619525       -7.617200   1.000000   1.000000
    190         -7.619480       -7.617157   1.000000   1.000000
    191         -7.614298       -7.611281   1.000000   1.000000
    192         -7.612379       -7.611246   1.000000   1.000000
    193         -7.612344       -7.610406   1.000000   1.000000
    194         -7.591592       -7.591366   1.000000   1.000000
    195         -7.591354       -7.588351   1.000000   1.000000
    196         -7.591319       -7.588315   1.000000   1.000000
    197         -7.585294       -7.582759   1.000000   1.000000
    198         -7.579225       -7.578544   1.000000   1.000000
    199         -7.579179       -7.578500   1.000000   1.000000
    200         -7.572718       -7.572039   1.000000   1.000000
    201         -7.572693       -7.572012   1.000000   1.000000
    202         -7.569900       -7.569787   1.000000   1.000000
    203         -7.568529       -7.567211   1.000000   1.000000
    204         -7.567044       -7.565534   1.000000   1.000000
    205         -7.567006       -7.565499   1.000000   1.000000
    206         -7.561018       -7.559794   1.000000   1.000000
    207         -7.558958       -7.558393   1.000000   1.000000
    208         -7.558899       -7.558334   1.000000   1.000000
    209         -7.556045       -7.554647   1.000000   1.000000
    210         -7.556004       -7.554605   1.000000   1.000000
    211         -7.549043       -7.548183   1.000000   1.000000
    212         -7.546743       -7.546064   1.000000   1.000000
    213         -7.543396       -7.542792   1.000000   1.000000
    214         -7.543383       -7.542779   1.000000   1.000000
    215         -7.536801       -7.530210   1.000000   1.000000
    216         -7.530595       -7.528309   1.000000   1.000000
    217         -7.529629       -7.528128   1.000000   1.000000
    218         -7.529608       -7.528107   1.000000   1.000000
    219         -7.522760       -7.520560   1.000000   1.000000
    220         -7.519750       -7.519178   1.000000   1.000000
    221         -7.519731       -7.519160   1.000000   1.000000
    222         -7.510673       -7.509444   1.000000   1.000000
    223         -7.510635       -7.509003   1.000000   1.000000
    224         -7.510538       -7.508967   1.000000   1.000000
    225         -7.507131       -7.506340   1.000000   1.000000
    226         -7.507090       -7.506298   1.000000   1.000000
    227         -7.502644       -7.502245   1.000000   1.000000
    228         -7.493249       -7.491187   1.000000   1.000000
    229         -7.490650       -7.488983   1.000000   1.000000
    230         -7.490617       -7.488948   1.000000   1.000000
    231         -7.482660       -7.482499   1.000000   1.000000
    232         -7.480245       -7.479083   1.000000   1.000000
    233         -7.480205       -7.479045   1.000000   1.000000
    234         -7.473936       -7.471989   1.000000   1.000000
    235         -7.472867       -7.471764   1.000000   1.000000
    236         -7.472845       -7.471742   1.000000   1.000000
    237         -7.468131       -7.467141   1.000000   1.000000
    238         -7.468080       -7.467089   1.000000   1.000000
    239         -7.458571       -7.457712   1.000000   1.000000
    240         -7.455505       -7.455328   1.000000   1.000000
    241         -7.455465       -7.454335   1.000000   1.000000
    242         -7.455433       -7.454305   1.000000   1.000000
    243         -7.437701       -7.436885   1.000000   1.000000
    244         -7.437648       -7.436831   1.000000   1.000000
    245         -7.434503       -7.433644   1.000000   1.000000
    246         -7.434127       -7.431147   1.000000   1.000000
    247         -7.432111       -7.431123   1.000000   1.000000
    248         -7.432087       -7.430823   1.000000   1.000000
    249         -7.429907       -7.428402   1.000000   1.000000
    250         -7.429889       -7.428389   1.000000   1.000000
    251         -7.428398       -7.427493   1.000000   1.000000
    252         -7.428083       -7.424409   1.000000   1.000000
    253         -7.422997       -7.421942   1.000000   1.000000
    254         -7.422983       -7.421925   1.000000   1.000000
    255         -7.414314       -7.413174   1.000000   1.000000
    256         -7.404799       -7.402344   1.000000   1.000000
    257         -7.404756       -7.402302   1.000000   1.000000
    258         -7.398024       -7.397655   1.000000   1.000000
    259         -7.388922       -7.388058   1.000000   1.000000
    260         -7.388888       -7.388024   1.000000   1.000000
    261         -7.378407       -7.378349   1.000000   1.000000
    262         -7.373025       -7.370933   1.000000   1.000000
    263         -7.373007       -7.370914   1.000000   1.000000
    264         -7.370046       -7.368911   1.000000   1.000000
    265         -7.370013       -7.368877   1.000000   1.000000
    266         -7.364996       -7.362084   1.000000   1.000000
    267         -7.361598       -7.361461   1.000000   1.000000
    268         -7.356344       -7.355109   1.000000   1.000000
    269         -7.356318       -7.355084   1.000000   1.000000
    270         -7.351149       -7.348609   1.000000   1.000000
    271         -7.349244       -7.348361   1.000000   1.000000
    272         -7.349210       -7.348329   1.000000   1.000000
    273         -7.343978       -7.343415   1.000000   1.000000
    274         -7.343960       -7.343396   1.000000   1.000000
    275         -7.340910       -7.339559   1.000000   1.000000
    276         -7.337623       -7.337502   1.000000   1.000000
    277         -7.336114       -7.334721   1.000000   1.000000
    278         -7.336106       -7.334712   1.000000   1.000000
    279         -7.330516       -7.329534   1.000000   1.000000
    280         -7.330490       -7.329506   1.000000   1.000000
    281         -7.327655       -7.325928   1.000000   1.000000
    282         -7.326137       -7.325903   1.000000   1.000000
    283         -7.317354       -7.314769   1.000000   1.000000
    284         -7.317334       -7.314747   1.000000   1.000000
    285         -7.311141       -7.310626   1.000000   1.000000
    286         -7.309864       -7.309245   1.000000   1.000000
    287         -7.309827       -7.309212   1.000000   1.000000
    288         -7.308282       -7.306002   1.000000   1.000000
    289         -7.306618       -7.305975   1.000000   1.000000
    290         -7.306591       -7.301877   1.000000   1.000000
    291         -7.300807       -7.299985   1.000000   1.000000
    292         -7.300780       -7.299958   1.000000   1.000000
    293         -7.295873       -7.292482   1.000000   1.000000
    294         -7.290222       -7.289290   1.000000   1.000000
    295         -7.290214       -7.289283   1.000000   1.000000
    296         -7.280599       -7.277692   1.000000   1.000000
    297         -7.280573       -7.277668   1.000000   1.000000
    298         -7.278203       -7.276195   1.000000   1.000000
    299         -7.271743       -7.270009   1.000000   1.000000
    300         -7.271722       -7.269990   1.000000   1.000000
    301         -7.270042       -7.269734   1.000000   1.000000
    302         -7.266975       -7.265714   1.000000   1.000000
    303         -7.250009       -7.249318   1.000000   1.000000
    304         -7.243636       -7.243488   1.000000   1.000000
    305         -7.242455       -7.241623   1.000000   1.000000
    306         -7.242439       -7.241608   1.000000   1.000000
    307         -7.239286       -7.238424   1.000000   1.000000
    308         -7.239269       -7.238405   1.000000   1.000000
    309         -7.238214       -7.235641   1.000000   1.000000
    310         -7.231722       -7.230274   1.000000   1.000000
    311         -7.231706       -7.230258   1.000000   1.000000
    312         -7.225011       -7.223732   1.000000   1.000000
    313         -7.224972       -7.223693   1.000000   1.000000
    314         -7.215194       -7.214400   1.000000   1.000000
    315         -7.215187       -7.214395   1.000000   1.000000
    316         -7.213127       -7.212996   1.000000   1.000000
    317         -7.209865       -7.208096   1.000000   1.000000
    318         -7.206795       -7.206529   1.000000   1.000000
    319         -7.203592       -7.202839   1.000000   1.000000
    320         -7.203555       -7.202798   1.000000   1.000000
    321         -7.201736       -7.200978   1.000000   1.000000
    322         -7.201733       -7.200977   1.000000   1.000000
    323         -7.190295       -7.189231   1.000000   1.000000
    324         -7.190268       -7.188749   1.000000   1.000000
    325         -7.189511       -7.188723   1.000000   1.000000
    326         -7.175666       -7.175347   1.000000   1.000000
    327         -7.172950       -7.171230   1.000000   1.000000
    328         -7.172926       -7.171205   1.000000   1.000000
    329         -7.169207       -7.167617   1.000000   1.000000
    330         -7.167494       -7.166828   1.000000   1.000000
    331         -7.167494       -7.166827   1.000000   1.000000
    332         -7.159151       -7.158210   1.000000   1.000000
    333         -7.147231       -7.147058   1.000000   1.000000
    334         -7.136394       -7.134900   1.000000   1.000000
    335         -7.136385       -7.134895   1.000000   1.000000
    336         -7.134433       -7.133580   1.000000   1.000000
    337         -7.134428       -7.133536   1.000000   1.000000
    338         -7.133648       -7.133528   1.000000   1.000000
    339         -7.133376       -7.131615   1.000000   1.000000
    340         -7.122045       -7.119633   1.000000   1.000000
    341         -7.122041       -7.119629   1.000000   1.000000
    342         -7.111733       -7.111418   1.000000   1.000000
    343         -7.111729       -7.111412   1.000000   1.000000
    344         -7.104488       -7.104378   1.000000   1.000000
    345         -7.098338       -7.096654   1.000000   1.000000
    346         -7.094731       -7.094450   1.000000   1.000000
    347         -7.088785       -7.086127   1.000000   1.000000
    348         -7.088773       -7.086113   1.000000   1.000000
    349         -7.074209       -7.073081   1.000000   1.000000
    350         -7.074186       -7.072896   1.000000   1.000000
    351         -7.073341       -7.072875   1.000000   1.000000
    352         -7.069218       -7.068268   1.000000   1.000000
    353         -7.069198       -7.068251   1.000000   1.000000
    354         -7.062743       -7.061007   1.000000   1.000000
    355         -7.062730       -7.060991   1.000000   1.000000
    356         -7.040819       -7.040391   1.000000   1.000000
    357         -7.039551       -7.037507   1.000000   1.000000
    358         -7.039542       -7.037505   1.000000   1.000000
    359         -7.036499       -7.034322   1.000000   1.000000
    360         -7.036490       -7.034306   1.000000   1.000000
    361         -7.031319       -7.029200   1.000000   1.000000
    362         -7.028851       -7.028209   1.000000   1.000000
    363         -7.028841       -7.028199   1.000000   1.000000
    364         -7.025060       -7.024915   1.000000   1.000000
    365         -6.998286       -6.995756   1.000000   1.000000
    366         -6.998265       -6.995732   1.000000   1.000000
    367         -6.995598       -6.991215   1.000000   1.000000
    368         -6.993102       -6.990455   1.000000   1.000000
    369         -6.991955       -6.990439   1.000000   1.000000
    370         -6.991936       -6.990264   1.000000   1.000000
    371         -6.991626       -6.985850   1.000000   1.000000
    372         -6.978219       -6.975970   1.000000   1.000000
    373         -6.978199       -6.975952   1.000000   1.000000
    374         -6.974545       -6.972569   1.000000   1.000000
    375         -6.961950       -6.960345   1.000000   1.000000
    376         -6.961949       -6.959372   1.000000   1.000000
    377         -6.960673       -6.959371   1.000000   1.000000
    378         -6.959081       -6.953917   1.000000   1.000000
    379         -6.947651       -6.945227   1.000000   1.000000
    380         -6.935604       -6.934672   1.000000   1.000000
    381         -6.935600       -6.934670   1.000000   1.000000
    382         -6.928592       -6.925807   1.000000   1.000000
    383         -6.928583       -6.925796   1.000000   1.000000
    384         -6.919781       -6.919218   1.000000   1.000000
    385         -6.919756       -6.919194   1.000000   1.000000
    386         -6.904110       -6.902164   1.000000   1.000000
    387         -6.902898       -6.901699   1.000000   1.000000
    388         -6.902890       -6.901692   1.000000   1.000000
    389         -6.901794       -6.901181   1.000000   1.000000
    390         -6.880463       -6.879643   1.000000   1.000000
    391         -6.880463       -6.879642   1.000000   1.000000
    392         -6.877429       -6.874692   1.000000   1.000000
    393         -6.872028       -6.871114   1.000000   1.000000
    394         -6.872023       -6.871106   1.000000   1.000000
    395         -6.866328       -6.863705   1.000000   1.000000
    396         -6.866324       -6.863698   1.000000   1.000000
    397         -6.863929       -6.863502   1.000000   1.000000
    398         -6.846035       -6.843338   1.000000   1.000000
    399         -6.837809       -6.835693   1.000000   1.000000
    400         -6.836791       -6.835524   1.000000   1.000000
    401         -6.836783       -6.835517   1.000000   1.000000
    402         -6.834610       -6.834367   1.000000   1.000000
    403         -6.834608       -6.833975   1.000000   1.000000
    404         -6.834590       -6.833960   1.000000   1.000000
    405         -6.828708       -6.825953   1.000000   1.000000
    406         -6.817710       -6.817287   1.000000   1.000000
    407         -6.817709       -6.817286   1.000000   1.000000
    408         -6.809180       -6.807570   1.000000   1.000000
    409         -6.802827       -6.800447   1.000000   1.000000
    410         -6.802825       -6.800447   1.000000   1.000000
    411         -6.789269       -6.786343   1.000000   1.000000
    412         -6.778457       -6.778309   1.000000   1.000000
    413         -6.775932       -6.775443   1.000000   1.000000
    414         -6.775923       -6.775434   1.000000   1.000000
    415         -6.769087       -6.768532   1.000000   1.000000
    416         -6.769085       -6.768529   1.000000   1.000000
    417         -6.765305       -6.764100   1.000000   1.000000
    418         -6.765302       -6.764095   1.000000   1.000000
    419         -6.754672       -6.753395   1.000000   1.000000
    420         -6.753907       -6.753394   1.000000   1.000000
    421         -6.753906       -6.752641   1.000000   1.000000
    422         -6.752775       -6.752513   1.000000   1.000000
    423         -6.738490       -6.737690   1.000000   1.000000
    424         -6.737863       -6.735336   1.000000   1.000000
    425         -6.735340       -6.734367   1.000000   1.000000
    426         -6.735333       -6.734360   1.000000   1.000000
    427         -6.720583       -6.720169   1.000000   1.000000
    428         -6.720576       -6.720162   1.000000   1.000000
    429         -6.714103       -6.714007   1.000000   1.000000
    430         -6.714073       -6.705785   1.000000   1.000000
    431         -6.706414       -6.702838   1.000000   1.000000
    432         -6.703621       -6.702831   1.000000   1.000000
    433         -6.703612       -6.698230   1.000000   1.000000
    434         -6.698521       -6.698045   1.000000   1.000000
    435         -6.698512       -6.698036   1.000000   1.000000
    436         -6.686317       -6.686043   1.000000   1.000000
    437         -6.686310       -6.686036   1.000000   1.000000
    438         -6.676781       -6.675925   1.000000   1.000000
    439         -6.676780       -6.675923   1.000000   1.000000
    440         -6.676093       -6.672899   1.000000   1.000000
    441         -6.676090       -6.672896   1.000000   1.000000
    442         -6.676045       -6.672198   1.000000   1.000000
    443         -6.662053       -6.661352   1.000000   1.000000
    444         -6.662039       -6.661338   1.000000   1.000000
    445         -6.659315       -6.659134   1.000000   1.000000
    446         -6.657696       -6.656061   1.000000   1.000000
    447         -6.655984       -6.655898   1.000000   1.000000
    448         -6.655708       -6.655436   1.000000   1.000000
    449         -6.655697       -6.655425   1.000000   1.000000
    450         -6.649914       -6.649751   1.000000   1.000000
    451         -6.648837       -6.648604   1.000000   1.000000
    452         -6.648827       -6.648594   1.000000   1.000000
    453         -6.640721       -6.640434   1.000000   1.000000
    454         -6.640575       -6.638828   1.000000   1.000000
    455         -6.639629       -6.638819   1.000000   1.000000
    456         -6.639621       -6.638703   1.000000   1.000000
    457         -6.632619       -6.631908   1.000000   1.000000
    458         -6.632609       -6.631899   1.000000   1.000000
    459         -6.631509       -6.628539   1.000000   1.000000
    460         -6.625804       -6.624812   1.000000   1.000000
    461         -6.625802       -6.624811   1.000000   1.000000
    462         -6.623483       -6.621828   1.000000   1.000000
    463         -6.614420       -6.614317   1.000000   1.000000
    464         -6.599052       -6.598924   1.000000   1.000000