       N       E                     dE             d eps       ncg     rms          ort
SDA:   1    -0.120283773149E+04   -0.12028E+04   -0.12674E+02  1056   0.422E+02 0.000E+00
DMP:   2    -0.121283647710E+04   -0.99987E+01   -0.93728E+01  1056   0.173E+02 0.244E+02
DMP:   3    -0.121918906766E+04   -0.63526E+01   -0.35958E+01  1056   0.565E+01 0.111E+02
DMP:   4    -0.122097414756E+04   -0.17851E+01   -0.53170E+00  1056   0.183E+01-0.944E-01
DMP:   5    -0.122082339165E+04    0.15076E+00   -0.74170E-01  1056   0.183E+01-0.278E+01
DMP:   6    -0.122068903947E+04    0.13435E+00   -0.29634E+00  1056   0.164E+01-0.114E+01
DMP:   7    -0.122088535763E+04   -0.19632E+00   -0.44677E+00  1056   0.131E+01 0.322E+00
DMP:   8    -0.122122729409E+04   -0.34194E+00   -0.33077E+00  1056   0.652E+00 0.791E+00
DMP:   9    -0.122144669408E+04   -0.21940E+00   -0.11726E+00  1056   0.186E+00 0.360E+00
DMP:  10    -0.122150566615E+04   -0.58972E-01   -0.26394E-01  1056   0.867E-01 0.224E-02
DMP:  11    -0.122150800439E+04   -0.23382E-02   -0.48276E-02  1056   0.574E-01-0.725E-01
DMP:  12    -0.122150423202E+04    0.37724E-02   -0.11173E-01  1056   0.608E-01-0.413E-01
DMP:  13    -0.122151177954E+04   -0.75475E-02   -0.16338E-01  1056   0.470E-01 0.131E-01
DMP:  14    -0.122152376518E+04   -0.11986E-01   -0.10801E-01  1056   0.215E-01 0.255E-01
DMP:  15    -0.122153113464E+04   -0.73695E-02   -0.48037E-02  1056   0.851E-02 0.132E-01
DMP:  16    -0.122153397478E+04   -0.28401E-02   -0.14709E-02  1056   0.324E-02 0.292E-02
DMP:  17    -0.122153453330E+04   -0.55853E-03   -0.46932E-03  1056   0.224E-02-0.119E-02
DMP:  18    -0.122153466180E+04   -0.12849E-03   -0.47812E-03  1056   0.200E-02-0.709E-03
DMP:  19    -0.122153494821E+04   -0.28641E-03   -0.44280E-03  1056   0.129E-02 0.324E-03
DMP:  20    -0.122153525222E+04   -0.30402E-03   -0.30461E-03  1056   0.698E-03 0.557E-03
DMP:  21    -0.122153546086E+04   -0.20864E-03   -0.15523E-03  1056   0.304E-03 0.375E-03
DMP:  22    -0.122153555751E+04   -0.96646E-04   -0.67369E-04  1056   0.154E-03 0.123E-03
DMP:  23    -0.122153559607E+04   -0.38560E-04   -0.34993E-04  1056   0.994E-04 0.303E-04
DMP:  24    -0.122153561531E+04   -0.19239E-04   -0.18995E-04  1056   0.564E-04 0.121E-04
DMP:  25    -0.122153562555E+04   -0.10240E-04   -0.11461E-04  1056   0.348E-04 0.592E-05
DMP:  26    -0.122153563264E+04   -0.70933E-05   -0.76779E-05  1056   0.205E-04 0.899E-05
DMP:  27    -0.122153563765E+04   -0.50153E-05   -0.47895E-05  1056   0.118E-04 0.724E-05
DMP:  28    -0.122153564085E+04   -0.31961E-05   -0.31148E-05  1056   0.749E-05 0.508E-05
DMP:  29    -0.122153564287E+04   -0.20215E-05   -0.17212E-05  1056   0.381E-05 0.339E-05
DMP:  30    -0.122153564386E+04   -0.98406E-06   -0.75476E-06  1056   0.183E-05 0.121E-05
   1 F= -.12215356E+04 E0= -.12215356E+04  d E =-.122154E+04  mag=     2.0000
       N       E                     dE             d eps       ncg     rms          ort
SDA:   1    -0.122022651433E+04    0.13091E+01   -0.10154E+01  1056   0.338E+01 0.000E+00
DMP:   2    -0.122100476022E+04   -0.77825E+00   -0.68066E+00  1056   0.124E+01 0.180E+01
DMP:   3    -0.122144097831E+04   -0.43622E+00   -0.24221E+00  1056   0.443E+00 0.640E+00
DMP:   4    -0.122156065172E+04   -0.11967E+00   -0.63834E-01  1056   0.218E+00-0.943E-02
DMP:   5    -0.122156958869E+04   -0.89370E-02   -0.16375E-01  1056   0.142E+00-0.153E+00
DMP:   6    -0.122156591587E+04    0.36728E-02   -0.23969E-01  1056   0.125E+00-0.791E-01
DMP:   7    -0.122158072907E+04   -0.14813E-01   -0.28277E-01  1056   0.835E-01 0.188E-01
DMP:   8    -0.122160051187E+04   -0.19783E-01   -0.18454E-01  1056   0.401E-01 0.376E-01
DMP:   9    -0.122161230596E+04   -0.11794E-01   -0.80568E-02  1056   0.171E-01 0.171E-01
DMP:  10    -0.122161652149E+04   -0.42155E-02   -0.27585E-02  1056   0.847E-02 0.128E-02
DMP:  11    -0.122161748433E+04   -0.96284E-03   -0.11182E-02  1056   0.530E-02-0.276E-02
DMP:  12    -0.122161781280E+04   -0.32846E-03   -0.86766E-03  1056   0.377E-02-0.153E-02
DMP:  13    -0.122161829930E+04   -0.48650E-03   -0.81105E-03  1056   0.251E-02 0.348E-03
DMP:  14    -0.122161884260E+04   -0.54330E-03   -0.55668E-03  1056   0.133E-02 0.914E-03
DMP:  15    -0.122161920425E+04   -0.36165E-03   -0.29234E-03  1056   0.660E-03 0.552E-03
DMP:  16    -0.122161937739E+04   -0.17314E-03   -0.13307E-03  1056   0.342E-03 0.178E-03
DMP:  17    -0.122161944630E+04   -0.68912E-04   -0.58503E-04  1056   0.186E-03 0.151E-04
DMP:  18    -0.122161947268E+04   -0.26378E-04   -0.30731E-04  1056   0.114E-03-0.199E-04
DMP:  19    -0.122161948802E+04   -0.15341E-04   -0.22024E-04  1056   0.739E-04-0.853E-06
DMP:  20    -0.122161950153E+04   -0.13508E-04   -0.16142E-04  1056   0.446E-04 0.162E-04
DMP:  21    -0.122161951200E+04   -0.10474E-04   -0.10084E-04  1056   0.245E-04 0.159E-04
DMP:  22    -0.122161951833E+04   -0.63315E-05   -0.54453E-05  1056   0.131E-04 0.885E-05
DMP:  23    -0.122161952152E+04   -0.31916E-05   -0.26780E-05  1056   0.692E-05 0.352E-05
DMP:  24    -0.122161952296E+04   -0.14361E-05   -0.12838E-05  1056   0.376E-05 0.913E-06
DMP:  25    -0.122161952363E+04   -0.67502E-06   -0.73650E-06  1056   0.230E-05 0.266E-06
   2 F= -.12216195E+04 E0= -.12216195E+04  d E =-.838798E-01  mag=     2.0000
       N       E                     dE             d eps       ncg     rms          ort
SDA:   1    -0.122034567475E+04    0.12738E+01   -0.94925E+00  1056   0.316E+01 0.000E+00
DMP:   2    -0.122107348537E+04   -0.72781E+00   -0.63734E+00  1056   0.116E+01 0.169E+01
DMP:   3    -0.122148258162E+04   -0.40910E+00   -0.22840E+00  1056   0.417E+00 0.603E+00
DMP:   4    -0.122159609526E+04   -0.11351E+00   -0.60507E-01  1056   0.204E+00-0.442E-02
DMP:   5    -0.122160498382E+04   -0.88886E-02   -0.15257E-01  1056   0.132E+00-0.142E+00
DMP:   6    -0.122160142819E+04    0.35556E-02   -0.22150E-01  1056   0.116E+00-0.746E-01
DMP:   7    -0.122161503772E+04   -0.13610E-01   -0.26304E-01  1056   0.781E-01 0.168E-01
DMP:   8    -0.122163346813E+04   -0.18430E-01   -0.17377E-01  1056   0.379E-01 0.352E-01
DMP:   9    -0.122164461530E+04   -0.11147E-01   -0.76444E-02  1056   0.161E-01 0.164E-01
DMP:  10    -0.122164863214E+04   -0.40168E-02   -0.25997E-02  1056   0.791E-02 0.133E-02
DMP:  11    -0.122164953931E+04   -0.90717E-03   -0.10430E-02  1056   0.496E-02-0.260E-02
DMP:  12    -0.122164984318E+04   -0.30388E-03   -0.81280E-03  1056   0.353E-02-0.145E-02
DMP:  13    -0.122165029816E+04   -0.45497E-03   -0.75744E-03  1056   0.234E-02 0.321E-03
DMP:  14    -0.122165080460E+04   -0.50645E-03   -0.52074E-03  1056   0.125E-02 0.847E-03
DMP:  15    -0.122165114274E+04   -0.33814E-03   -0.27423E-03  1056   0.620E-03 0.515E-03
DMP:  16    -0.122165130532E+04   -0.16258E-03   -0.12580E-03  1056   0.323E-03 0.168E-03
DMP:  17    -0.122165137087E+04   -0.65548E-04   -0.55624E-04  1056   0.176E-03 0.167E-04
DMP:  18    -0.122165139623E+04   -0.25354E-04   -0.29027E-04  1056   0.107E-03-0.173E-04
DMP:  19    -0.122165141075E+04   -0.14527E-04   -0.20545E-04  1056   0.689E-04-0.741E-06
DMP:  20    -0.122165142330E+04   -0.12542E-04   -0.14941E-04  1056   0.415E-04 0.146E-04
DMP:  21    -0.122165143293E+04   -0.96389E-05   -0.93358E-05  1056   0.230E-04 0.143E-04
DMP:  22    -0.122165143877E+04   -0.58395E-05   -0.51176E-05  1056   0.125E-04 0.804E-05
DMP:  23    -0.122165144178E+04   -0.30038E-05   -0.25379E-05  1056   0.656E-05 0.333E-05
DMP:  24    -0.122165144314E+04   -0.13669E-05   -0.12230E-05  1056   0.356E-05 0.908E-06
DMP:  25    -0.122165144379E+04   -0.64216E-06   -0.68031E-06  1056   0.212E-05 0.255E-06
   3 F= -.12216514E+04 E0= -.12216514E+04  d E =-.115800E+00  mag=     2.0000
       N       E                     dE             d eps       ncg     rms          ort
SDA:   1    -0.122139747452E+04    0.25397E+00   -0.17128E+00  1056   0.571E+00 0.000E+00
DMP:   2    -0.122153617436E+04   -0.13870E+00   -0.13546E+00  1056   0.250E+00 0.354E+00
DMP:   3    -0.122163093593E+04   -0.94762E-01   -0.54293E-01  1056   0.782E-01 0.180E+00
DMP:   4    -0.122166067916E+04   -0.29743E-01   -0.10115E-01  1056   0.238E-01 0.173E-01
DMP:   5    -0.122166046904E+04    0.21012E-03    0.40584E-03  1056   0.187E-01-0.351E-01
DMP:   6    -0.122165718211E+04    0.32869E-02   -0.29894E-02  1056   0.217E-01-0.206E-01
DMP:   7    -0.122165912011E+04   -0.19380E-02   -0.57055E-02  1056   0.173E-01 0.296E-02
DMP:   8    -0.122166350760E+04   -0.43875E-02   -0.43805E-02  1056   0.877E-02 0.102E-01
DMP:   9    -0.122166653907E+04   -0.30315E-02   -0.18401E-02  1056   0.294E-02 0.561E-02
DMP:  10    -0.122166755581E+04   -0.10167E-02   -0.42773E-03  1056   0.106E-02 0.645E-03
DMP:  11    -0.122166763466E+04   -0.78847E-04   -0.82110E-04  1056   0.788E-03-0.901E-03
DMP:  12    -0.122166759843E+04    0.36232E-04   -0.14238E-03  1056   0.769E-03-0.516E-03
DMP:  13    -0.122166768742E+04   -0.88997E-04   -0.19075E-03  1056   0.568E-03 0.119E-03
DMP:  14    -0.122166782667E+04   -0.13924E-03   -0.13567E-03  1056   0.285E-03 0.293E-03
DMP:  15    -0.122166791942E+04   -0.92752E-04   -0.63958E-04  1056   0.118E-03 0.166E-03
DMP:  16    -0.122166795811E+04   -0.38686E-04   -0.23987E-04  1056   0.546E-04 0.445E-04
DMP:  17    -0.122166796986E+04   -0.11752E-04   -0.95783E-05  1056   0.330E-04-0.190E-05
DMP:  18    -0.122166797396E+04   -0.40978E-05   -0.63901E-05  1056   0.240E-04-0.466E-05
DMP:  19    -0.122166797760E+04   -0.36419E-05   -0.53071E-05  1056   0.159E-04 0.312E-05
DMP:  20    -0.122166798112E+04   -0.35226E-05   -0.37076E-05  1056   0.898E-05 0.593E-05
DMP:  21    -0.122166798361E+04   -0.24909E-05   -0.21507E-05  1056   0.472E-05 0.429E-05
DMP:  22    -0.122166798501E+04   -0.14030E-05   -0.11200E-05  1056   0.250E-05 0.216E-05
DMP:  23    -0.122166798571E+04   -0.69110E-06   -0.54655E-06  1056   0.134E-05 0.843E-06
   4 F= -.12216680E+04 E0= -.12216680E+04  d E =-.165419E-01  mag=     2.0000
       N       E                     dE             d eps       ncg     rms          ort
SDA:   1    -0.122079146372E+04    0.87652E+00   -0.56814E+00  1056   0.189E+01 0.000E+00
DMP:   2    -0.122125140552E+04   -0.45994E+00   -0.45022E+00  1056   0.832E+00 0.117E+01
DMP:   3    -0.122156582786E+04   -0.31442E+00   -0.18007E+00  1056   0.261E+00 0.595E+00
DMP:   4    -0.122166324559E+04   -0.97418E-01   -0.31742E-01  1056   0.778E-01 0.492E-01
DMP:   5    -0.122166054987E+04    0.26957E-02    0.24004E-02  1056   0.625E-01-0.124E+00
DMP:   6    -0.122164884192E+04    0.11708E-01   -0.99735E-02  1056   0.732E-01-0.700E-01
DMP:   7    -0.122165547779E+04   -0.66359E-02   -0.19679E-01  1056   0.593E-01 0.110E-01
DMP:   8    -0.122167069854E+04   -0.15221E-01   -0.15186E-01  1056   0.302E-01 0.359E-01
DMP:   9    -0.122168120313E+04   -0.10505E-01   -0.62349E-02  1056   0.971E-02 0.194E-01
DMP:  10    -0.122168458787E+04   -0.33847E-02   -0.13016E-02  1056   0.332E-02 0.178E-02
DMP:  11    -0.122168471197E+04   -0.12410E-03   -0.17604E-03  1056   0.259E-02-0.352E-02
DMP:  12    -0.122168451084E+04    0.20113E-03   -0.48207E-03  1056   0.271E-02-0.193E-02
DMP:  13    -0.122168482416E+04   -0.31333E-03   -0.69654E-03  1056   0.205E-02 0.483E-03
DMP:  14    -0.122168534126E+04   -0.51710E-03   -0.49121E-03  1056   0.994E-03 0.113E-02
DMP:  15    -0.122168567863E+04   -0.33737E-03   -0.21884E-03  1056   0.380E-03 0.612E-03
DMP:  16    -0.122168580795E+04   -0.12931E-03   -0.72497E-04  1056   0.167E-03 0.132E-03
DMP:  17    -0.122168583909E+04   -0.31145E-04   -0.26612E-04  1056   0.109E-03-0.350E-04
DMP:  18    -0.122168584843E+04   -0.93339E-05   -0.21299E-04  1056   0.861E-04-0.265E-04
DMP:  19    -0.122168586094E+04   -0.12512E-04   -0.19375E-04  1056   0.572E-04 0.129E-04
DMP:  20    -0.122168587419E+04   -0.13250E-04   -0.13367E-04  1056   0.308E-04 0.241E-04
DMP:  21    -0.122168588328E+04   -0.90850E-05   -0.73853E-05  1056   0.155E-04 0.160E-04
DMP:  22    -0.122168588806E+04   -0.47876E-05   -0.36675E-05  1056   0.815E-05 0.714E-05
DMP:  23    -0.122168589028E+04   -0.22139E-05   -0.17749E-05  1056   0.450E-05 0.248E-05
DMP:  24    -0.122168589127E+04   -0.99388E-06   -0.90884E-06  1056   0.260E-05 0.753E-06
   5 F= -.12216859E+04 E0= -.12216859E+04  d E =-.344475E-01  mag=     2.0000
       N       E                     dE             d eps       ncg     rms          ort
SDA:   1    -0.122140964961E+04    0.27624E+00   -0.19393E+00  1056   0.646E+00 0.000E+00
DMP:   2    -0.122156362208E+04   -0.15397E+00   -0.14244E+00  1056   0.258E+00 0.380E+00
DMP:   3    -0.122165929793E+04   -0.95676E-01   -0.52360E-01  1056   0.816E-01 0.163E+00
DMP:   4    -0.122168684764E+04   -0.27550E-01   -0.11926E-01  1056   0.345E-01 0.913E-02
DMP:   5    -0.122168792793E+04   -0.10803E-02   -0.99791E-03  1056   0.219E-01-0.326E-01
DMP:   6    -0.122168531440E+04    0.26135E-02   -0.35178E-02  1056   0.236E-01-0.208E-01
DMP:   7    -0.122168756117E+04   -0.22468E-02   -0.61315E-02  1056   0.186E-01 0.325E-02
DMP:   8    -0.122169216059E+04   -0.45994E-02   -0.43749E-02  1056   0.875E-02 0.102E-01
DMP:   9    -0.122169509149E+04   -0.29309E-02   -0.17960E-02  1056   0.316E-02 0.496E-02
DMP:  10    -0.122169608142E+04   -0.98992E-03   -0.53796E-03  1056   0.144E-02 0.614E-03
DMP:  11    -0.122169625252E+04   -0.17110E-03   -0.15046E-03  1056   0.874E-03-0.653E-03
DMP:  12    -0.122169625465E+04   -0.21307E-05   -0.14178E-03  1056   0.750E-03-0.486E-03
DMP:  13    -0.122169633421E+04   -0.79562E-04   -0.18332E-03  1056   0.577E-03 0.593E-04
DMP:  14    -0.122169646582E+04   -0.13161E-03   -0.13688E-03  1056   0.304E-03 0.267E-03
DMP:  15    -0.122169655918E+04   -0.93364E-04   -0.68884E-04  1056   0.135E-03 0.166E-03
DMP:  16    -0.122169660188E+04   -0.42697E-04   -0.28768E-04  1056   0.649E-04 0.543E-04
DMP:  17    -0.122169661695E+04   -0.15069E-04   -0.11111E-04  1056   0.347E-04 0.412E-05
DMP:  18    -0.122169662151E+04   -0.45611E-05   -0.59300E-05  1056   0.235E-04-0.654E-05
DMP:  19    -0.122169662444E+04   -0.29353E-05   -0.50599E-05  1056   0.169E-04 0.134E-07
DMP:  20    -0.122169662773E+04   -0.32825E-05   -0.38585E-05  1056   0.997E-05 0.507E-05
DMP:  21    -0.122169663033E+04   -0.26066E-05   -0.23212E-05  1056   0.521E-05 0.443E-05
DMP:  22    -0.122169663186E+04   -0.15284E-05   -0.12183E-05  1056   0.272E-05 0.235E-05
DMP:  23    -0.122169663262E+04   -0.75741E-06   -0.59021E-06  1056   0.142E-05 0.956E-06
   6 F= -.12216966E+04 E0= -.12216966E+04  d E =-.107413E-01  mag=     2.0000
       N       E                     dE             d eps       ncg     rms          ort
SDA:   1    -0.122123136221E+04    0.46527E+00   -0.32000E+00  1056   0.107E+01 0.000E+00
DMP:   2    -0.122148552615E+04   -0.25416E+00   -0.23579E+00  1056   0.428E+00 0.628E+00
DMP:   3    -0.122164381424E+04   -0.15829E+00   -0.86628E-01  1056   0.135E+00 0.269E+00
DMP:   4    -0.122168916943E+04   -0.45355E-01   -0.19412E-01  1056   0.569E-01 0.136E-01
DMP:   5    -0.122169056367E+04   -0.13942E-02   -0.14001E-02  1056   0.363E-01-0.554E-01
DMP:   6    -0.122168605088E+04    0.45128E-02   -0.58926E-02  1056   0.395E-01-0.348E-01
DMP:   7    -0.122168987178E+04   -0.38209E-02   -0.10300E-01  1056   0.310E-01 0.583E-02
DMP:   8    -0.122169760690E+04   -0.77351E-02   -0.73127E-02  1056   0.146E-01 0.172E-01
DMP:   9    -0.122170249715E+04   -0.48902E-02   -0.29602E-02  1056   0.518E-02 0.823E-02
DMP:  10    -0.122170410880E+04   -0.16116E-02   -0.84907E-03  1056   0.233E-02 0.879E-03
DMP:  11    -0.122170435077E+04   -0.24197E-03   -0.22150E-03  1056   0.143E-02-0.122E-02
DMP:  12    -0.122170433300E+04    0.17767E-04   -0.23323E-03  1056   0.127E-02-0.856E-03
DMP:  13    -0.122170446702E+04   -0.13402E-03   -0.31401E-03  1056   0.979E-03 0.118E-03
DMP:  14    -0.122170469496E+04   -0.22795E-03   -0.23484E-03  1056   0.512E-03 0.474E-03
DMP:  15    -0.122170485574E+04   -0.16078E-03   -0.11565E-03  1056   0.221E-03 0.289E-03
DMP:  16    -0.122170492683E+04   -0.71091E-04   -0.45786E-04  1056   0.103E-03 0.874E-04
DMP:  17    -0.122170494981E+04   -0.22976E-04   -0.16504E-04  1056   0.551E-04-0.210E-06
DMP:  18    -0.122170495577E+04   -0.59549E-05   -0.91089E-05  1056   0.391E-04-0.153E-04
DMP:  19    -0.122170496018E+04   -0.44169E-05   -0.85392E-05  1056   0.288E-04-0.612E-06
DMP:  20    -0.122170496585E+04   -0.56655E-05   -0.67348E-05  1056   0.171E-04 0.944E-05
DMP:  21    -0.122170497047E+04   -0.46177E-05   -0.40426E-05  1056   0.877E-05 0.825E-05
DMP:  22    -0.122170497315E+04   -0.26806E-05   -0.20782E-05  1056   0.450E-05 0.426E-05
DMP:  23    -0.122170497443E+04   -0.12878E-05   -0.97064E-06  1056   0.232E-05 0.160E-05
DMP:  24    -0.122170497497E+04   -0.53481E-06   -0.44893E-06  1056   0.129E-05 0.364E-06
   7 F= -.12217050E+04 E0= -.12217050E+04  d E =-.190837E-01  mag=     2.0000
       N       E                     dE             d eps       ncg     rms          ort
SDA:   1    -0.122148550183E+04    0.21947E+00   -0.14567E+00  1056   0.486E+00 0.000E+00
DMP:   2    -0.122160389143E+04   -0.11839E+00   -0.11501E+00  1056   0.210E+00 0.304E+00
DMP:   3    -0.122168313624E+04   -0.79245E-01   -0.41957E-01  1056   0.573E-01 0.145E+00
DMP:   4    -0.122170502783E+04   -0.21892E-01   -0.73498E-02  1056   0.210E-01 0.609E-02
DMP:   5    -0.122170442873E+04    0.59910E-03   -0.18116E-03  1056   0.168E-01-0.285E-01
DMP:   6    -0.122170217043E+04    0.22583E-02   -0.27991E-02  1056   0.182E-01-0.156E-01
DMP:   7    -0.122170404188E+04   -0.18715E-02   -0.49380E-02  1056   0.147E-01 0.316E-02
DMP:   8    -0.122170783640E+04   -0.37945E-02   -0.36897E-02  1056   0.726E-02 0.884E-02
DMP:   9    -0.122171036851E+04   -0.25321E-02   -0.14940E-02  1056   0.237E-02 0.458E-02
DMP:  10    -0.122171118250E+04   -0.81400E-03   -0.35321E-03  1056   0.925E-03 0.443E-03
DMP:  11    -0.122171125667E+04   -0.74163E-04   -0.90288E-04  1056   0.693E-03-0.689E-03
DMP:  12    -0.122171124786E+04    0.88042E-05   -0.12761E-03  1056   0.632E-03-0.363E-03
DMP:  13    -0.122171132750E+04   -0.79633E-04   -0.15934E-03  1056   0.471E-03 0.106E-03
DMP:  14    -0.122171144376E+04   -0.11627E-03   -0.11632E-03  1056   0.248E-03 0.246E-03
DMP:  15    -0.122171152385E+04   -0.80091E-04   -0.55445E-04  1056   0.101E-03 0.147E-03
DMP:  16    -0.122171155735E+04   -0.33502E-04   -0.19712E-04  1056   0.436E-04 0.387E-04
DMP:  17    -0.122171156682E+04   -0.94678E-05   -0.77241E-05  1056   0.274E-04-0.294E-05
DMP:  18    -0.122171157015E+04   -0.33259E-05   -0.54729E-05  1056   0.204E-04-0.380E-05
DMP:  19    -0.122171157336E+04   -0.32097E-05   -0.46883E-05  1056   0.138E-04 0.328E-05
DMP:  20    -0.122171157651E+04   -0.31504E-05   -0.32535E-05  1056   0.763E-05 0.564E-05
DMP:  21    -0.122171157869E+04   -0.21824E-05   -0.17940E-05  1056   0.378E-05 0.386E-05
DMP:  22    -0.122171157984E+04   -0.11502E-05   -0.86592E-06  1056   0.192E-05 0.170E-05
DMP:  23    -0.122171158037E+04   -0.52813E-06   -0.42516E-06  1056   0.109E-05 0.578E-06
   8 F= -.12217116E+04 E0= -.12217116E+04  d E =-.660540E-02  mag=     2.0000
       N       E                     dE             d eps       ncg     rms          ort
SDA:   1    -0.122167260449E+04    0.38975E-01   -0.25703E-01  1056   0.857E-01 0.000E+00
DMP:   2    -0.122169347815E+04   -0.20874E-01   -0.20142E-01  1056   0.367E-01 0.535E-01
DMP:   3    -0.122170734843E+04   -0.13870E-01   -0.72946E-02  1056   0.988E-02 0.253E-01
DMP:   4    -0.122171118464E+04   -0.38362E-02   -0.13509E-02  1056   0.379E-02 0.126E-02
DMP:   5    -0.122171116095E+04    0.23691E-04   -0.89188E-04  1056   0.295E-02-0.466E-02
DMP:   6    -0.122171081421E+04    0.34675E-03   -0.49376E-03  1056   0.313E-02-0.260E-02
DMP:   7    -0.122171113740E+04   -0.32319E-03   -0.83430E-03  1056   0.249E-02 0.514E-03
DMP:   8    -0.122171177529E+04   -0.63789E-03   -0.62572E-03  1056   0.125E-02 0.147E-02
DMP:   9    -0.122171220634E+04   -0.43105E-03   -0.26208E-03  1056   0.424E-03 0.788E-03
DMP:  10    -0.122171235306E+04   -0.14672E-03   -0.69634E-04  1056   0.173E-03 0.103E-03
DMP:  11    -0.122171237423E+04   -0.21166E-04   -0.21226E-04  1056   0.124E-03-0.932E-04
DMP:  12    -0.122171237723E+04   -0.30001E-05   -0.22343E-04  1056   0.104E-03-0.520E-04
DMP:  13    -0.122171239060E+04   -0.13372E-04   -0.25393E-04  1056   0.763E-04 0.147E-04
DMP:  14    -0.122171240881E+04   -0.18211E-04   -0.19007E-04  1056   0.421E-04 0.373E-04
DMP:  15    -0.122171242192E+04   -0.13110E-04   -0.96931E-05  1056   0.183E-04 0.245E-04
DMP:  16    -0.122171242794E+04   -0.60189E-05   -0.38268E-05  1056   0.823E-05 0.795E-05
DMP:  17    -0.122171242998E+04   -0.20384E-05   -0.15858E-05  1056   0.486E-05 0.740E-06
DMP:  18    -0.122171243076E+04   -0.78497E-06   -0.96038E-06  1056   0.330E-05-0.167E-06
   9 F= -.12217124E+04 E0= -.12217124E+04  d E =-.745579E-02  mag=     2.0000
