 vasp.6.4.2 20Jul23 (build Oct 07 2023 16:32:06) gamma-only                     
  
 executed on             bridges2 date 2024.10.24  13:44:16
 running  768 mpi-ranks, on    6 nodes
 distrk:  each k-point on  384 cores,    2 groups
 distr:  one band on NCORE=   8 cores,   48 groups


--------------------------------------------------------------------------------------------------------


 INCAR:
   SYSTEM = zno
   PREC = Normal
   ISTART = 1
   ICHARG = 1
   ISPIN = 2
   MAGMOM = 76*0.0 1*1.0 2*0.0 1*1.0 11*0.0 1*1.0 78*0.0 1*1.0 2*0.0 1*1.0 11*0.0 1*1.0 4*0.0 1*1.4
   FERWE = 860*1 2*0.5 1*1 193*0
   FERDO = 860*1 196*0
   NCORE = 8
   KPAR = 2
   NELECT = 1722
   ENCUT = 400
   NELM = 1000
   NELMIN = 4
   EDIFF = 1E-06
   LREAL = Auto
   EDIFFG = +1E-02
   NSW = 30
   IBRION = 2
   ISIF = 2
   ISYM = 3
   POTIM = 0.2
   ISMEAR = -2
   SIGMA = 0.005
   NBANDS = 1056
   LWAVE = T
   LCHARG = T
   LVHAR = T
   LVTOT = F
   LELF = F
   LORBIT = 11
   ALGO = Damped
   TIME = 0.3
   LHFCALC = T
   HFSCREEN = 0.2
   AEXX = 0.375
   GGA = PE

 POTCAR:    PAW_PBE Zn 06Sep2000                  
 POTCAR:    PAW_PBE O 08Apr2002                   
 POTCAR:    PAW_PBE Mo_sv 02Feb2006               
 -----------------------------------------------------------------------------
|                                                                             |
|           W    W    AA    RRRRR   N    N  II  N    N   GGGG   !!!           |
|           W    W   A  A   R    R  NN   N  II  NN   N  G    G  !!!           |
|           W    W  A    A  R    R  N N  N  II  N N  N  G       !!!           |
|           W WW W  AAAAAA  RRRRR   N  N N  II  N  N N  G  GGG   !            |
|           WW  WW  A    A  R   R   N   NN  II  N   NN  G    G                |
|           W    W  A    A  R    R  N    N  II  N    N   GGGG   !!!           |
|                                                                             |
|     For optimal performance we recommend to set                             |
|       NCORE = 2 up to number-of-cores-per-socket                            |
|     NCORE specifies how many cores store one orbital (NPAR=cpu/NCORE).      |
|     This setting can greatly improve the performance of VASP for DFT.       |
|     The default, NCORE=1 might be grossly inefficient on modern             |
|     multi-core architectures or massively parallel machines. Do your        |
|     own testing! More info at https://www.vasp.at/wiki/index.php/NCORE      |
|     Unfortunately you need to use the default for GW and RPA                |
|     calculations (for HF NCORE is supported but not extensively tested      |
|     yet).                                                                   |
|                                                                             |
 -----------------------------------------------------------------------------

 POTCAR:    PAW_PBE Zn 06Sep2000                  
   SHA256 =  501fddbd8274dd8e9725d4f3de27861d7f1e553a7e18441bc79fed8f346e7f23 Zn/POTCAR             
   COPYR  = (c) Copyright 06Sep2000 Georg Kresse                                                    
   COPYR  = This file is part of the software VASP. Any use, copying, and all other rights are regul
   COPYR  = If you do not have a valid VASP license, you may not use, copy or distribute this file. 
   VRHFIN =Zn: d10 p2                                                                               
   LEXCH  = PE                                                                                      
   EATOM  =  1748.8345 eV,  128.5357 Ry                                                             
                                                                                                    
   TITEL  = PAW_PBE Zn 06Sep2000                                                                    
   LULTRA =        F    use ultrasoft PP ?                                                          
   IUNSCR =        1    unscreen: 0-lin 1-nonlin 2-no                                               
   RPACOR =    2.000    partial core radius                                                         
   POMASS =   65.390; ZVAL   =   12.000    mass and valenz                                          
   RCORE  =    2.300    outmost cutoff radius                                                       
   RWIGS  =    2.400; RWIGS  =    1.270    wigner-seitz radius (au A)                               
   ENMAX  =  276.723; ENMIN  =  207.542 eV                                                          
   RCLOC  =    1.828    cutoff for local pot                                                        
   LCOR   =        T    correct aug charges                                                         
   LPAW   =        T    paw PP                                                                      
   EAUG   =  575.892                                                                                
   DEXC   =    0.000                                                                                
   RMAX   =    2.347    core radius for proj-oper                                                   
   RAUG   =    1.300    factor for augmentation sphere                                              
   RDEP   =    2.324    radius for radial grids                                                     
   RDEPT  =    1.788    core radius for aug-charge                                                  
                                                                                                    
   Atomic configuration                                                                             
    9 entries                                                                                       
     n  l   j            E        occ.                                                              
     1  0  0.50     -9524.6913   2.0000                                                             
     2  0  0.50     -1158.1882   2.0000                                                             
     2  1  1.50     -1003.8506   6.0000                                                             
     3  0  0.50      -129.2194   2.0000                                                             
     3  1  1.50       -83.3890   6.0000                                                             
     3  2  2.50       -10.1410  10.0000                                                             
     4  0  0.50        -5.9785   2.0000                                                             
     4  1  0.50        -4.0817   0.0000                                                             
     4  3  2.50        -1.3606   0.0000                                                             
   Description                                                                                      
     l       E           TYP  RCUT    TYP  RCUT                                                     
     2    -10.1410010     23  2.300                                                                 
     2    -11.5015836     23  2.300                                                                 
     0     -5.9785163     23  2.300                                                                 
     0      1.1858015     23  2.300                                                                 
     1     -2.7211652     23  2.300                                                                 
     1     13.2444212     23  2.300                                                                 
  local pseudopotential read in
  partial core-charges read in
  partial kinetic energy density read in
  atomic valenz-charges read in
  non local Contribution for L=           2  read in
    real space projection operators read in
  non local Contribution for L=           2  read in
    real space projection operators read in
  non local Contribution for L=           0  read in
    real space projection operators read in
  non local Contribution for L=           0  read in
    real space projection operators read in
  non local Contribution for L=           1  read in
    real space projection operators read in
  non local Contribution for L=           1  read in
    real space projection operators read in
    PAW grid and wavefunctions read in
 
   number of l-projection  operators is LMAX  =           6
   number of lm-projection operators is LMMAX =          18
 
 POTCAR:    PAW_PBE O 08Apr2002                   
   SHA256 =  818f92134a0a090dccd8ba1447fa70422a3b330e708bb4f08108d8ae51209ddf O/POTCAR              
   COPYR  = (c) Copyright 08Apr2002 Georg Kresse                                                    
   COPYR  = This file is part of the software VASP. Any use, copying, and all other rights are regul
   COPYR  = If you do not have a valid VASP license, you may not use, copy or distribute this file. 
   VRHFIN =O: s2p4                                                                                  
   LEXCH  = PE                                                                                      
   EATOM  =   432.3788 eV,   31.7789 Ry                                                             
                                                                                                    
   TITEL  = PAW_PBE O 08Apr2002                                                                     
   LULTRA =        F    use ultrasoft PP ?                                                          
   IUNSCR =        1    unscreen: 0-lin 1-nonlin 2-no                                               
   RPACOR =    1.200    partial core radius                                                         
   POMASS =   16.000; ZVAL   =    6.000    mass and valenz                                          
   RCORE  =    1.520    outmost cutoff radius                                                       
   RWIGS  =    1.550; RWIGS  =    0.820    wigner-seitz radius (au A)                               
   ENMAX  =  400.000; ENMIN  =  300.000 eV                                                          
   ICORE  =        2    local potential                                                             
   LCOR   =        T    correct aug charges                                                         
   LPAW   =        T    paw PP                                                                      
   EAUG   =  605.392                                                                                
   DEXC   =    0.000                                                                                
   RMAX   =    1.553    core radius for proj-oper                                                   
   RAUG   =    1.300    factor for augmentation sphere                                              
   RDEP   =    1.550    radius for radial grids                                                     
   RDEPT  =    1.329    core radius for aug-charge                                                  
                                                                                                    
   Atomic configuration                                                                             
    4 entries                                                                                       
     n  l   j            E        occ.                                                              
     1  0  0.50      -514.6923   2.0000                                                             
     2  0  0.50       -23.9615   2.0000                                                             
     2  1  0.50        -9.0305   4.0000                                                             
     3  2  1.50        -9.5241   0.0000                                                             
   Description                                                                                      
     l       E           TYP  RCUT    TYP  RCUT                                                     
     0    -23.9615318     23  1.200                                                                 
     0     -9.5240782     23  1.200                                                                 
     1     -9.0304911     23  1.520                                                                 
     1      8.1634956     23  1.520                                                                 
     2     -9.5240782      7  1.500                                                                 
  local pseudopotential read in
  partial core-charges read in
  partial kinetic energy density read in
  kinetic energy density of atom read in
  atomic valenz-charges read in
  non local Contribution for L=           0  read in
    real space projection operators read in
  non local Contribution for L=           0  read in
    real space projection operators read in
  non local Contribution for L=           1  read in
    real space projection operators read in
  non local Contribution for L=           1  read in
    real space projection operators read in
    PAW grid and wavefunctions read in
 
   number of l-projection  operators is LMAX  =           4
   number of lm-projection operators is LMMAX =           8
 
 POTCAR:    PAW_PBE Mo_sv 02Feb2006               
   SHA256 =  2731df97e41766cc617548c5a8267718fdef1f509ac6bafa01e745abea2bdfaa Mo_sv/POTCAR          
   COPYR  = (c) Copyright 02Feb2006 Georg Kresse                                                    
   COPYR  = This file is part of the software VASP. Any use, copying, and all other rights are regul
   COPYR  = If you do not have a valid VASP license, you may not use, copy or distribute this file. 
   VRHFIN =Mo: 4p5s4d                                                                               
   LEXCH  = PE                                                                                      
   EATOM  =  1862.2866 eV,  136.8742 Ry                                                             
                                                                                                    
   TITEL  = PAW_PBE Mo_sv 02Feb2006                                                                 
   LULTRA =        F    use ultrasoft PP ?                                                          
   IUNSCR =        1    unscreen: 0-lin 1-nonlin 2-no                                               
   RPACOR =    2.200    partial core radius                                                         
   POMASS =   95.940; ZVAL   =   14.000    mass and valenz                                          
   RCORE  =    2.500    outmost cutoff radius                                                       
   RWIGS  =    2.750; RWIGS  =    1.455    wigner-seitz radius (au A)                               
   ENMAX  =  242.676; ENMIN  =  182.007 eV                                                          
   ICORE  =        3    local potential                                                             
   LCOR   =        T    correct aug charges                                                         
   LPAW   =        T    paw PP                                                                      
   EAUG   =  446.014                                                                                
   DEXC   =    0.000                                                                                
   RMAX   =    2.563    core radius for proj-oper                                                   
   RAUG   =    1.300    factor for augmentation sphere                                              
   RDEP   =    2.641    radius for radial grids                                                     
   RDEPT  =    2.031    core radius for aug-charge                                                  
                                                                                                    
   Atomic configuration                                                                             
   11 entries                                                                                       
     n  l   j            E        occ.                                                              
     1  0  0.50    -19819.0341   2.0000                                                             
     2  0  0.50     -2799.0127   2.0000                                                             
     2  1  1.50     -2502.0276   6.0000                                                             
     3  0  0.50      -476.4449   2.0000                                                             
     3  1  1.50      -379.1496   6.0000                                                             
     3  2  2.50      -220.9367  10.0000                                                             
     4  0  0.50       -64.3378   2.0000                                                             
     5  0  0.50        -4.0862   1.0000                                                             
     4  1  1.50       -38.4773   6.0000                                                             
     4  2  2.50        -3.7535   5.0000                                                             
     4  3  2.50        -1.3606   0.0000                                                             
   Description                                                                                      
     l       E           TYP  RCUT    TYP  RCUT                                                     
     0    -64.3377829     23  2.100                                                                 
     0     -4.0861640     23  2.400                                                                 
     1    -38.4772993     23  2.100                                                                 
     1     13.6058260     23  2.100                                                                 
     2     -3.7534941     23  2.400                                                                 
     2     -5.1140767     23  2.400                                                                 
     3     -4.0817478     23  2.500                                                                 
  local pseudopotential read in
  partial core-charges read in
  partial kinetic energy density read in
  atomic valenz-charges read in
  non local Contribution for L=           0  read in
    real space projection operators read in
  non local Contribution for L=           0  read in
    real space projection operators read in
  non local Contribution for L=           1  read in
    real space projection operators read in
  non local Contribution for L=           1  read in
    real space projection operators read in
  non local Contribution for L=           2  read in
    real space projection operators read in
  non local Contribution for L=           2  read in
    real space projection operators read in
    PAW grid and wavefunctions read in
 
   number of l-projection  operators is LMAX  =           6
   number of lm-projection operators is LMMAX =          18
 
 Optimization of the real space projectors (new method)

 maximal supplied QI-value         = 16.25
 optimisation between [QCUT,QGAM] = [ 10.24, 20.48] = [ 29.35,117.42] Ry 
 Optimized for a Real-space Cutoff    1.38 Angstroem

   l    n(q)    QCUT    max X(q) W(low)/X(q) W(high)/X(q)  e(spline) 
   2      7    10.239    46.356    0.21E-03    0.48E-03    0.10E-06
   2      7    10.239    41.843    0.21E-03    0.50E-03    0.10E-06
   0      8    10.239    48.958    0.37E-03    0.79E-04    0.11E-06
   0      8    10.239    32.776    0.35E-03    0.73E-04    0.10E-06
   1      8    10.239    17.787    0.49E-03    0.70E-03    0.14E-06
   1      8    10.239    14.435    0.42E-03    0.61E-03    0.13E-06
 Optimization of the real space projectors (new method)

 maximal supplied QI-value         = 24.76
 optimisation between [QCUT,QGAM] = [ 10.15, 20.30] = [ 28.85,115.39] Ry 
 Optimized for a Real-space Cutoff    1.38 Angstroem

   l    n(q)    QCUT    max X(q) W(low)/X(q) W(high)/X(q)  e(spline) 
   0      8    10.150    20.381    0.22E-03    0.32E-03    0.29E-06
   0      8    10.150    15.268    0.23E-03    0.35E-03    0.30E-06
   1      8    10.150     5.964    0.46E-03    0.53E-03    0.21E-06
   1      8    10.150     5.382    0.38E-03    0.45E-03    0.19E-06
 Optimization of the real space projectors (new method)

 maximal supplied QI-value         = 15.12
 optimisation between [QCUT,QGAM] = [ 10.13, 20.41] = [ 28.73,116.64] Ry 
 Optimized for a Real-space Cutoff    1.55 Angstroem

   l    n(q)    QCUT    max X(q) W(low)/X(q) W(high)/X(q)  e(spline) 
   0      9    10.129     3.559    0.15E-04    0.17E-04    0.57E-07
   0      9    10.129    20.730    0.48E-04    0.15E-04    0.66E-07
   1      9    10.129     3.279    0.16E-05    0.10E-04    0.27E-07
   1      9    10.129     4.693    0.32E-03    0.57E-04    0.21E-06
   2      9    10.129    67.616    0.48E-03    0.12E-03    0.44E-06
   2      9    10.129    62.420    0.48E-03    0.12E-03    0.45E-06
  PAW_PBE Zn 06Sep2000                  :
 energy of atom  1       EATOM=-1748.8345
 kinetic energy error for atom=    0.0107 (will be added to EATOM!!)
  PAW_PBE O 08Apr2002                   :
 energy of atom  2       EATOM= -432.3788
 kinetic energy error for atom=    0.1156 (will be added to EATOM!!)
  PAW_PBE Mo_sv 02Feb2006               :
 energy of atom  3       EATOM=-1862.2866
 kinetic energy error for atom=    0.0181 (will be added to EATOM!!)
 
 
 POSCAR:   Zn2 O2
  positions in direct lattice
  velocities in cartesian coordinates
 exchange correlation table for  LEXCH =        8
   RHO(1)=    0.500       N(1)  =     2000
   RHO(2)=  100.500       N(2)  =     4000
 


--------------------------------------------------------------------------------------------------------


 ion  position               nearest neighbor table
   1  0.167  0.083  0.165- 143 1.97 152 1.97 155 1.97  96 1.99
   2  0.167  0.083  0.500- 144 1.97  97 1.98 153 1.98 156 1.98
   3  0.167  0.083  0.834- 145 1.98  98 1.98 154 1.98 157 1.98
   4  0.166  0.333  0.166- 143 1.97 146 1.97 158 1.98  99 1.99
   5  0.165  0.333  0.500- 144 1.97 147 1.97 100 1.98 159 2.00
   6  0.166  0.333  0.834- 145 1.98 148 1.98 101 1.98 160 1.98
   7  0.167  0.583  0.165- 146 1.97 161 1.97 149 1.97 102 1.99
   8  0.167  0.583  0.500- 147 1.97 103 1.98 162 1.98 150 1.98
   9  0.167  0.583  0.834- 148 1.98 104 1.98 163 1.98 151 1.98
  10  0.167  0.833  0.165- 164 1.97 149 1.97 152 1.97 105 1.99
  11  0.168  0.834  0.500- 165 1.97 106 1.98 150 1.98 153 1.98
  12  0.167  0.833  0.834- 166 1.98 107 1.98 151 1.98 154 1.98
  13  0.417  0.083  0.165- 164 1.97 167 1.97 155 1.97 108 1.99
  14  0.416  0.082  0.500- 165 1.97 109 1.98 168 1.98 156 1.98
  15  0.417  0.083  0.834- 166 1.98 110 1.98 169 1.98 157 1.98
  16  0.415  0.332  0.166- 155 1.96 158 1.96 170 1.98 111 2.01
  17  0.407  0.327  0.502- 156 1.93 159 1.95 112 1.95 171 2.09
  18  0.418  0.334  0.833- 157 1.97 160 1.98 113 1.98 172 2.00
  19  0.415  0.583  0.166- 161 1.96 158 1.96 173 1.98 114 2.01
  20  0.407  0.580  0.502- 162 1.93 159 1.95 115 1.95 174 2.09
  21  0.418  0.584  0.833- 163 1.97 160 1.98 116 1.98 175 2.00
  22  0.417  0.833  0.165- 164 1.97 161 1.97 176 1.97 117 1.99
  23  0.416  0.834  0.500- 165 1.97 118 1.98 162 1.98 177 1.98
  24  0.417  0.833  0.834- 166 1.98 119 1.98 163 1.98 178 1.98
  25  0.667  0.083  0.165- 179 1.97 176 1.97 167 1.97 120 1.99
  26  0.667  0.083  0.500- 180 1.97 121 1.98 177 1.98 168 1.98
  27  0.667  0.083  0.834- 181 1.98 122 1.98 178 1.98 169 1.98
  28  0.667  0.332  0.166- 167 1.96 182 1.96 170 1.98 123 2.01
  29  0.670  0.327  0.502- 168 1.93 183 1.95 124 1.95 171 2.09
  30  0.666  0.334  0.833- 169 1.97 184 1.98 125 1.98 172 2.00
  31  0.667  0.583  0.167- 170 1.96 185 1.96 173 1.96 126 2.07
  32  0.667  0.583  0.835- 127 1.97 172 1.98 187 1.98 175 1.98
  33  0.667  0.835  0.166- 176 1.96 188 1.96 173 1.98 128 2.01
  34  0.670  0.843  0.502- 177 1.93 189 1.95 129 1.95 174 2.09
  35  0.666  0.832  0.833- 178 1.97 190 1.98 130 1.98 175 2.00
  36  0.917  0.084  0.166- 143 1.97 179 1.97 188 1.98 131 1.99
  37  0.917  0.085  0.500- 144 1.97 180 1.97 132 1.98 189 2.00
  38  0.917  0.084  0.834- 145 1.98 181 1.98 133 1.98 190 1.98
  39  0.917  0.333  0.166- 146 1.97 179 1.97 182 1.98 134 1.99
  40  0.917  0.333  0.500- 147 1.97 180 1.97 135 1.98 183 2.00
  41  0.917  0.333  0.834- 148 1.98 181 1.98 136 1.98 184 1.98
  42  0.918  0.583  0.166- 149 1.96 182 1.96 185 1.98 137 2.01
  43  0.923  0.580  0.502- 150 1.93 183 1.95 138 1.95 186 2.09
  44  0.916  0.584  0.833- 151 1.97 184 1.98 139 1.98 187 2.00
  45  0.918  0.835  0.166- 152 1.96 188 1.96 185 1.98 140 2.01
  46  0.923  0.843  0.502- 153 1.93 189 1.95 141 1.95 186 2.09
  47  0.916  0.832  0.833- 154 1.97 190 1.98 142 1.98 187 2.00
  48  0.083  0.167  1.000-  98 1.97 133 1.97 101 1.97 143 1.99
  49  0.083  0.167  0.332- 131 1.97  99 1.97  96 1.97 144 1.99
  50  0.083  0.167  0.667- 145 1.98 132 1.98 100 1.98  97 1.98
  51  0.083  0.417  1.000- 104 1.97 136 1.97 101 1.97 146 1.99
  52  0.083  0.417  0.332- 134 1.97  99 1.97 102 1.97 147 1.99
  53  0.083  0.417  0.667- 148 1.98 135 1.98 100 1.98 103 1.98
  54  0.083  0.667  1.000- 107 1.97 104 1.97 139 1.98 149 1.99
  55  0.085  0.667  0.332- 102 1.96 105 1.96 137 1.98 150 1.99
  56  0.084  0.667  0.668- 151 1.97 106 1.97 103 1.98 138 2.01
  57  0.083  0.917  1.000- 107 1.97  98 1.97 142 1.98 152 1.99
  58  0.085  0.918  0.332-  96 1.96 105 1.96 140 1.98 153 1.99
  59  0.084  0.917  0.668- 154 1.97 106 1.97  97 1.98 141 2.01
  60  0.333  0.167  1.000- 110 1.97  98 1.97 113 1.98 155 1.99
  61  0.332  0.165  0.332-  96 1.96 108 1.96 111 1.98 156 1.99
  62  0.333  0.166  0.668- 157 1.97 109 1.97  97 1.98 112 2.01
  63  0.333  0.417  1.000- 101 1.97 116 1.98 113 1.98 158 1.99
  64  0.332  0.416  0.332-  99 1.95 114 1.97 111 1.97 159 2.00
  65  0.332  0.416  0.669- 160 1.96 100 1.97 115 1.99 112 1.99
  66  0.333  0.667  1.000- 119 1.97 104 1.97 116 1.98 161 1.99
  67  0.332  0.667  0.332- 102 1.96 117 1.96 114 1.98 162 1.99
  68  0.333  0.667  0.668- 163 1.97 118 1.97 103 1.98 115 2.01
  69  0.333  0.917  1.000- 110 1.97 107 1.97 119 1.97 164 1.98
  70  0.333  0.917  0.332- 108 1.97 105 1.97 117 1.97 165 1.99
  71  0.333  0.917  0.667- 166 1.97 109 1.98 106 1.98 118 1.98
  72  0.583  0.167  1.000- 110 1.97 122 1.97 125 1.98 167 1.99
  73  0.583  0.165  0.332- 120 1.96 108 1.96 123 1.98 168 1.99
  74  0.583  0.166  0.668- 169 1.97 109 1.97 121 1.98 124 2.01
  75  0.583  0.417  0.001- 113 1.97 125 1.97 127 1.98 170 2.00
  76  0.582  0.413  0.327- 111 1.93 123 1.93 126 1.96 171 2.16
  77  0.585  0.419  0.665- 172 1.96 112 1.96 124 1.96 191 3.20
  78  0.583  0.667  0.001- 130 1.97 116 1.97 127 1.98 173 2.00
  79  0.582  0.668  0.327- 128 1.93 114 1.93 126 1.96 174 2.16
  80  0.585  0.665  0.665- 175 1.96 129 1.96 115 1.96 191 3.20
  81  0.583  0.917  1.000- 119 1.97 122 1.97 130 1.98 176 1.99
  82  0.583  0.918  0.332- 120 1.96 117 1.96 128 1.98 177 1.99
  83  0.583  0.917  0.668- 178 1.97 118 1.97 121 1.98 129 2.01
  84  0.833  0.167  1.000- 122 1.97 136 1.97 133 1.97 179 1.99
  85  0.833  0.167  0.332- 134 1.97 131 1.97 120 1.97 180 1.99
  86  0.833  0.167  0.667- 181 1.98 135 1.98 132 1.98 121 1.98
  87  0.833  0.417  1.000- 136 1.97 139 1.98 125 1.98 182 1.99
  88  0.834  0.416  0.332- 134 1.95 137 1.97 123 1.97 183 2.00
  89  0.834  0.416  0.669- 184 1.96 135 1.97 138 1.99 124 1.99
  90  0.833  0.667  0.001- 142 1.97 139 1.97 127 1.98 185 2.00
  91  0.837  0.668  0.327- 140 1.93 137 1.93 126 1.96 186 2.16
  92  0.831  0.665  0.665- 187 1.96 141 1.96 138 1.96 191 3.20
  93  0.833  0.917  1.000- 133 1.97 130 1.98 142 1.98 188 1.99
  94  0.834  0.918  0.332- 131 1.95 128 1.97 140 1.97 189 2.00
  95  0.834  0.918  0.669- 190 1.96 132 1.97 129 1.99 141 1.99
  96  0.167  0.083  0.293-  58 1.96  61 1.96  49 1.97   1 1.99
  97  0.167  0.083  0.626-   2 1.98  59 1.98  62 1.98  50 1.98
  98  0.167  0.083  0.960-  57 1.97  60 1.97  48 1.97   3 1.98
  99  0.166  0.333  0.293-  64 1.95  49 1.97  52 1.97   4 1.99
 100  0.167  0.334  0.626-  65 1.97   5 1.98  50 1.98  53 1.98
 101  0.167  0.333  0.960-  63 1.97  48 1.97  51 1.97   6 1.98
 102  0.167  0.583  0.293-  67 1.96  55 1.96  52 1.97   7 1.99
 103  0.167  0.584  0.626-   8 1.98  68 1.98  56 1.98  53 1.98
 104  0.167  0.583  0.960-  66 1.97  54 1.97  51 1.97   9 1.98
 105  0.167  0.833  0.293-  55 1.96  58 1.96  70 1.97  10 1.99
 106  0.166  0.833  0.627-  56 1.97  59 1.97  11 1.98  71 1.98
 107  0.167  0.833  0.960-  54 1.97  57 1.97  69 1.97  12 1.98
 108  0.417  0.083  0.293-  73 1.96  61 1.96  70 1.97  13 1.99
 109  0.417  0.084  0.627-  74 1.97  62 1.97  14 1.98  71 1.98
 110  0.417  0.083  0.960-  72 1.97  60 1.97  69 1.97  15 1.98
 111  0.416  0.333  0.295-  76 1.93  64 1.97  61 1.98  16 2.01
 112  0.418  0.335  0.627-  17 1.95  77 1.96  65 1.99  62 2.01
 113  0.418  0.334  0.960-  75 1.97  63 1.98  60 1.98  18 1.98
 114  0.416  0.583  0.295-  79 1.93  64 1.97  67 1.98  19 2.01
 115  0.418  0.583  0.627-  20 1.95  80 1.96  65 1.99  68 2.01
 116  0.418  0.584  0.960-  78 1.97  63 1.98  66 1.98  21 1.98
 117  0.417  0.833  0.293-  67 1.96  82 1.96  70 1.97  22 1.99
 118  0.417  0.833  0.627-  68 1.97  83 1.97  23 1.98  71 1.98
 119  0.417  0.833  0.960-  66 1.97  81 1.97  69 1.97  24 1.98
 120  0.667  0.083  0.293-  82 1.96  73 1.96  85 1.97  25 1.99
 121  0.666  0.083  0.626-  26 1.98  83 1.98  74 1.98  86 1.98
 122  0.667  0.083  0.960-  81 1.97  72 1.97  84 1.97  27 1.98
 123  0.667  0.333  0.295-  76 1.93  88 1.97  73 1.98  28 2.01
 124  0.667  0.335  0.627-  29 1.95  77 1.96  89 1.99  74 2.01
 125  0.666  0.334  0.960-  75 1.97  87 1.98  72 1.98  30 1.98
 126  0.667  0.583  0.299-  76 1.96  91 1.96  79 1.96  31 2.07
 127  0.667  0.583  0.961-  32 1.97  75 1.98  90 1.98  78 1.98
 128  0.667  0.834  0.295-  79 1.93  94 1.97  82 1.98  33 2.01
 129  0.667  0.832  0.627-  34 1.95  80 1.96  95 1.99  83 2.01
 130  0.666  0.832  0.960-  78 1.97  93 1.98  81 1.98  35 1.98
 131  0.917  0.084  0.293-  94 1.95  49 1.97  85 1.97  36 1.99
 132  0.916  0.083  0.626-  95 1.97  37 1.98  50 1.98  86 1.98
 133  0.917  0.083  0.960-  93 1.97  48 1.97  84 1.97  38 1.98
 134  0.917  0.333  0.293-  88 1.95  52 1.97  85 1.97  39 1.99
 135  0.916  0.334  0.626-  89 1.97  40 1.98  53 1.98  86 1.98
 136  0.917  0.333  0.960-  87 1.97  51 1.97  84 1.97  41 1.98
 137  0.917  0.583  0.295-  91 1.93  88 1.97  55 1.98  42 2.01
 138  0.915  0.583  0.627-  43 1.95  92 1.96  89 1.99  56 2.01
 139  0.916  0.584  0.960-  90 1.97  87 1.98  54 1.98  44 1.98
 140  0.917  0.834  0.295-  91 1.93  94 1.97  58 1.98  45 2.01
 141  0.915  0.832  0.627-  46 1.95  92 1.96  95 1.99  59 2.01
 142  0.916  0.832  0.960-  90 1.97  93 1.98  57 1.98  47 1.98
 143  0.083  0.167  0.127-  36 1.97   4 1.97   1 1.97  48 1.99
 144  0.084  0.166  0.460-  37 1.97   5 1.97   2 1.97  49 1.99
 145  0.083  0.167  0.793-  50 1.98   3 1.98  38 1.98   6 1.98
 146  0.083  0.417  0.127-  39 1.97   4 1.97   7 1.97  51 1.99
 147  0.084  0.417  0.460-  40 1.97   5 1.97   8 1.97  52 1.99
 148  0.083  0.417  0.793-  53 1.98   9 1.98  41 1.98   6 1.98
 149  0.083  0.667  0.127-  42 1.96   7 1.97  10 1.97  54 1.99
 150  0.084  0.667  0.459-  43 1.93  11 1.98   8 1.98  55 1.99
 151  0.083  0.667  0.794-  56 1.97  44 1.97  12 1.98   9 1.98
 152  0.083  0.917  0.127-  45 1.96   1 1.97  10 1.97  57 1.99
 153  0.084  0.916  0.459-  46 1.93  11 1.98   2 1.98  58 1.99
 154  0.083  0.916  0.794-  59 1.97  47 1.97  12 1.98   3 1.98
 155  0.333  0.167  0.127-  16 1.96   1 1.97  13 1.97  60 1.99
 156  0.334  0.166  0.459-  17 1.93  14 1.98   2 1.98  61 1.99
 157  0.334  0.167  0.794-  62 1.97  18 1.97  15 1.98   3 1.98
 158  0.333  0.417  0.127-  19 1.96  16 1.96   4 1.98  63 1.99
 159  0.334  0.417  0.460-  20 1.95  17 1.95  64 2.00   5 2.00
 160  0.334  0.417  0.794-  65 1.96  21 1.98  18 1.98   6 1.98
 161  0.333  0.667  0.127-  19 1.96   7 1.97  22 1.97  66 1.99
 162  0.334  0.667  0.459-  20 1.93  23 1.98   8 1.98  67 1.99
 163  0.334  0.667  0.794-  68 1.97  21 1.97  24 1.98   9 1.98
 164  0.333  0.917  0.127-  13 1.97  10 1.97  22 1.97  69 1.98
 165  0.333  0.917  0.460-  14 1.97  11 1.97  23 1.97  70 1.99
 166  0.333  0.917  0.793-  71 1.97  15 1.98  12 1.98  24 1.98
 167  0.583  0.167  0.127-  28 1.96  25 1.97  13 1.97  72 1.99
 168  0.583  0.166  0.459-  29 1.93  14 1.98  26 1.98  73 1.99
 169  0.583  0.167  0.794-  74 1.97  30 1.97  15 1.98  27 1.98
 170  0.583  0.417  0.130-  31 1.96  16 1.98  28 1.98  75 2.00
 171  0.586  0.422  0.465- 191 1.89  17 2.09  29 2.09  76 2.16
 172  0.584  0.419  0.790-  77 1.96  32 1.98  18 2.00  30 2.00
 173  0.583  0.667  0.130-  31 1.96  33 1.98  19 1.98  78 2.00
 174  0.586  0.664  0.465- 191 1.89  34 2.09  20 2.09  79 2.16
 175  0.584  0.666  0.790-  80 1.96  32 1.98  35 2.00  21 2.00
 176  0.583  0.917  0.127-  33 1.96  25 1.97  22 1.97  81 1.99
 177  0.583  0.916  0.459-  34 1.93  23 1.98  26 1.98  82 1.99
 178  0.583  0.916  0.794-  83 1.97  35 1.97  24 1.98  27 1.98
 179  0.833  0.167  0.127-  39 1.97  36 1.97  25 1.97  84 1.99
 180  0.833  0.166  0.460-  40 1.97  37 1.97  26 1.97  85 1.99
 181  0.833  0.167  0.793-  86 1.98  27 1.98  41 1.98  38 1.98
 182  0.833  0.417  0.127-  42 1.96  28 1.96  39 1.98  87 1.99
 183  0.833  0.417  0.460-  43 1.95  29 1.95  88 2.00  40 2.00
 184  0.833  0.417  0.794-  89 1.96  44 1.98  30 1.98  41 1.98
 185  0.833  0.667  0.130-  31 1.96  45 1.98  42 1.98  90 2.00
 186  0.828  0.664  0.465- 191 1.89  46 2.09  43 2.09  91 2.16
 187  0.831  0.666  0.790-  92 1.96  32 1.98  47 2.00  44 2.00
 188  0.833  0.917  0.127-  33 1.96  45 1.96  36 1.98  93 1.99
 189  0.833  0.916  0.460-  34 1.95  46 1.95  94 2.00  37 2.00
 190  0.833  0.916  0.794-  95 1.96  35 1.98  47 1.98  38 1.98
 191  0.667  0.583  0.497- 171 1.89 186 1.89 174 1.89  77 3.20  92 3.20  80 3.20
 
  LATTYP: Found a hexagonal cell.
 ALAT       =    12.9943542480
 C/A-ratio  =     1.2014478222
  
  Lattice vectors:
  
 A1 = (  12.9943542480,   0.0000000000,   0.0000000000)
 A2 = (  -6.4971766472,  11.2534400587,   0.0000000000)
 A3 = (   0.0000000000,   0.0000000000,  15.6120386124)


Analysis of symmetry for initial positions (statically):
=====================================================================
 Subroutine PRICEL returns:
 Original cell was already a primitive cell.
 

 Routine SETGRP: Setting up the symmetry group for a 
 hexagonal supercell.


 Subroutine GETGRP returns: Found  6 space group operations
 (whereof  1 operations were pure point group operations)
 out of a pool of 24 trial point group operations.


The static configuration has the point symmetry C_1 .
 The point group associated with its full space group is C_3v.


Analysis of symmetry for dynamics (positions and initial velocities):
=====================================================================
 Subroutine PRICEL returns:
 Original cell was already a primitive cell.
 

 Routine SETGRP: Setting up the symmetry group for a 
 hexagonal supercell.


 Subroutine GETGRP returns: Found  6 space group operations
 (whereof  1 operations were pure point group operations)
 out of a pool of 24 trial point group operations.


The dynamic configuration has the point symmetry C_1 .
 The point group associated with its full space group is C_3v.


Analysis of structural, dynamic, and magnetic symmetry:
=====================================================================
 Subroutine PRICEL returns:
 Original cell was already a primitive cell.
 

 Routine SETGRP: Setting up the symmetry group for a 
 hexagonal supercell.


 Subroutine GETGRP returns: Found  6 space group operations
 (whereof  1 operations were pure point group operations)
 out of a pool of 24 trial point group operations.


The overall configuration has the point symmetry C_1 .
 The point group associated with its full space group is C_3v.


 Subroutine INISYM returns: Found  6 space group operations
 (whereof  1 operations are pure point group operations),
 and found     1 'primitive' translations


----------------------------------------------------------------------------------------

                                     Primitive cell                                     

  volume of cell :    2282.9669

  direct lattice vectors                    reciprocal lattice vectors
    12.994354248  0.000000000  0.000000000     0.076956498  0.044430855  0.000000000
    -6.497176647 11.253440059  0.000000000     0.000000000  0.088861716  0.000000000
     0.000000000  0.000000000 15.612038612     0.000000000  0.000000000  0.064053134

  length of vectors
    12.994354248 12.994353294 15.612038612     0.088861710  0.088861716  0.064053134

  position of ions in fractional coordinates (direct lattice)
     0.166589360  0.083410648  0.165462906
     0.166725968  0.083274040  0.499735287
     0.166518713  0.083481295  0.833720328
     0.166063202  0.333031608  0.165625500
     0.165069352  0.332534683  0.499554003
     0.166324268  0.333162141  0.833715610
     0.166589360  0.583178689  0.165462906
     0.166725968  0.583451905  0.499735287
     0.166518713  0.583037395  0.833720328
     0.166969441  0.833484697  0.165453445
     0.167912642  0.833956298  0.500204648
     0.166942285  0.833471120  0.833836490
     0.416515303  0.083030567  0.165453445
     0.416043702  0.082087366  0.500204648
     0.416528880  0.083057723  0.833836490
     0.415171722  0.332420642  0.165808275
     0.407090156  0.327106462  0.502100037
     0.417592625  0.333834765  0.833441120
     0.415171722  0.582751049  0.165808275
     0.407090156  0.579983663  0.502100037
     0.417592625  0.583757829  0.833441120
     0.416515303  0.833484697  0.165453445
     0.416043702  0.833956298  0.500204648
     0.416528880  0.833471120  0.833836490
     0.666821311  0.083410648  0.165462906
     0.666548095  0.083274040  0.499735287
     0.666962605  0.083481295  0.833720328
     0.667248951  0.332420642  0.165808275
     0.670016337  0.327106462  0.502100037
     0.666242171  0.333834765  0.833441120
     0.666666687  0.583333313  0.166876256
     0.666666687  0.583333313  0.834964648
     0.667248951  0.834828278  0.165808275
     0.670016337  0.842909844  0.502100037
     0.666242171  0.832407375  0.833441120
     0.916968422  0.083936806  0.165625500
     0.917465347  0.084930656  0.499554003
     0.916837889  0.083675740  0.833715610
     0.916968422  0.333031608  0.165625500
     0.917465347  0.332534683  0.499554003
     0.916837889  0.333162141  0.833715610
     0.917579388  0.582751049  0.165808275
     0.922893568  0.579983663  0.502100037
     0.916165265  0.583757829  0.833441120
     0.917579388  0.834828278  0.165808275
     0.922893568  0.842909844  0.502100037
     0.916165265  0.832407375  0.833441120
     0.083317014  0.166682994  0.999740528
     0.083287718  0.166712290  0.332174985
     0.083266061  0.166733947  0.666807957
     0.083317014  0.416634043  0.999740528
     0.083287718  0.416575451  0.332174985
     0.083266061  0.416532137  0.666807957
     0.083319889  0.666654262  0.999649316
     0.085055525  0.667437865  0.331801135
     0.084171022  0.667223379  0.667863387
     0.083319889  0.916665665  0.999649316
     0.085055525  0.917617698  0.331801135
     0.084171022  0.916947681  0.667863387
     0.333334365  0.166680119  0.999649316
     0.332382332  0.164944483  0.331801135
     0.333052349  0.165828986  0.667863387
     0.333342765  0.416671398  0.999656598
     0.331607909  0.415803970  0.332144485
     0.332134915  0.416067473  0.668555499
     0.333334365  0.666654262  0.999649316
     0.332382332  0.667437865  0.331801135
     0.333052349  0.667223379  0.667863387
     0.333333343  0.916666687  0.999681914
     0.333333343  0.916666687  0.332118054
     0.333333343  0.916666687  0.667004288
     0.583345738  0.166680119  0.999649316
     0.582562135  0.164944483  0.331801135
     0.582776621  0.165828986  0.667863387
     0.583260150  0.416520360  0.001382269
     0.581634609  0.413269278  0.326919211
     0.584621055  0.419242172  0.664581598
     0.583260150  0.666739850  0.001382269
     0.581634609  0.668365391  0.326919211
     0.584621055  0.665378945  0.664581598
     0.583345738  0.916665665  0.999649316
     0.582562135  0.917617698  0.331801135
     0.582776621  0.916947681  0.667863387
     0.833365957  0.166682994  0.999740528
     0.833424549  0.166712290  0.332174985
     0.833467863  0.166733947  0.666807957
     0.833328602  0.416671398  0.999656598
     0.834196030  0.415803970  0.332144485
     0.833932527  0.416067473  0.668555499
     0.833479640  0.666739850  0.001382269
     0.836730722  0.668365391  0.326919211
     0.830757828  0.665378945  0.664581598
     0.833328602  0.916657265  0.999656598
     0.834196030  0.918392121  0.332144485
     0.833932527  0.917865115  0.668555499
     0.166530524  0.083469484  0.293120315
     0.166794680  0.083205328  0.626441907
     0.166673620  0.083326388  0.960443863
     0.166487588  0.333243801  0.293303304
     0.167202830  0.333601422  0.626215836
     0.166884695  0.333442354  0.960456050
     0.166530524  0.583061017  0.293120315
     0.166794680  0.583589329  0.626441907
     0.166673620  0.583347209  0.960443863
     0.166671507  0.833335731  0.293079360
     0.166276059  0.833138006  0.626752065
     0.166557279  0.833278616  0.960489493
     0.416664269  0.083328501  0.293079360
     0.416861994  0.083723949  0.626752065
     0.416721384  0.083442729  0.960489493
     0.416315911  0.333186757  0.294609909
     0.418077407  0.334822326  0.627008043
     0.417675120  0.333945886  0.960333986
     0.416315911  0.583129123  0.294609909
     0.418077407  0.583255050  0.627008043
     0.417675120  0.583729203  0.960333986
     0.416664269  0.833335731  0.293079360
     0.416861994  0.833138006  0.626752065
     0.416721384  0.833278616  0.960489493
     0.666938983  0.083469484  0.293120315
     0.666410671  0.083205328  0.626441907
     0.666652791  0.083326388  0.960443863
     0.666870877  0.333186757  0.294609909
     0.666744950  0.334822326  0.627008043
     0.666270797  0.333945886  0.960333986
     0.666666687  0.583333313  0.299167948
     0.666666687  0.583333313  0.961227439
     0.666870877  0.833684089  0.294609909
     0.666744950  0.831922593  0.627008043
     0.666270797  0.832324880  0.960333986
     0.916756229  0.083512420  0.293303304
     0.916398608  0.082797178  0.626215836
     0.916557676  0.083115313  0.960456050
     0.916756229  0.333243801  0.293303304
     0.916398608  0.333601422  0.626215836
     0.916557676  0.333442354  0.960456050
     0.916813273  0.583129123  0.294609909
     0.915177704  0.583255050  0.627008043
     0.916054144  0.583729203  0.960333986
     0.916813273  0.833684089  0.294609909
     0.915177704  0.831922593  0.627008043
     0.916054144  0.832324880  0.960333986
     0.083350669  0.166649339  0.126903166
     0.083634932  0.166365076  0.459706680
     0.083327799  0.166672209  0.793313459
     0.083350669  0.416701352  0.126903166
     0.083634932  0.417269879  0.459706680
     0.083327799  0.416655614  0.793313459
     0.083214251  0.666620662  0.127009139
     0.083661346  0.667431622  0.459461175
     0.082842232  0.666530436  0.793911886
     0.083214251  0.916593627  0.127009139
     0.083661346  0.916229761  0.459461175
     0.082842232  0.916311834  0.793911886
     0.333406403  0.166785757  0.127009139
     0.333770269  0.166338662  0.459461175
     0.333688196  0.167157776  0.793911886
     0.333338006  0.416669018  0.127249267
     0.334280423  0.417140227  0.459948473
     0.333707260  0.416853645  0.794248623
     0.333406403  0.666620662  0.127009139
     0.333770269  0.667431622  0.459461175
     0.333688196  0.666530436  0.793911886
     0.333333343  0.916666687  0.126806066
     0.333333343  0.916666687  0.459529821
     0.333333343  0.916666687  0.793488236
     0.583379338  0.166785757  0.127009139
     0.582568378  0.166338662  0.459461175
     0.583469564  0.167157776  0.793911886
     0.583494153  0.416988367  0.129553215
     0.585780551  0.421561164  0.465177526
     0.584436241  0.418872543  0.790075692
     0.583494153  0.666505847  0.129553215
     0.585780551  0.664219449  0.465177526
     0.584436241  0.665563759  0.790075692
     0.583379338  0.916593627  0.127009139
     0.582568378  0.916229761  0.459461175
     0.583469564  0.916311834  0.793911886
     0.833298648  0.166649339  0.126903166
     0.832730121  0.166365076  0.459706680
     0.833344386  0.166672209  0.793313459
     0.833330982  0.416669018  0.127249267
     0.832859773  0.417140227  0.459948473
     0.833146355  0.416853645  0.794248623
     0.833011633  0.666505847  0.129553215
     0.828438836  0.664219449  0.465177526
     0.831127457  0.665563759  0.790075692
     0.833330982  0.916662024  0.127249267
     0.832859773  0.915719607  0.459948473
     0.833146355  0.916292770  0.794248623
     0.666666687  0.583333313  0.497249613

  ion indices of the primitive-cell ions
   primitive index   ion index
                 1           1
                 2           2
                 3           3
                 4           4
                 5           5
                 6           6
                 7           7
                 8           8
                 9           9
                10          10
                11          11
                12          12
                13          13
                14          14
                15          15
                16          16
                17          17
                18          18
                19          19
                20          20
                21          21
                22          22
                23          23
                24          24
                25          25
                26          26
                27          27
                28          28
                29          29
                30          30
                31          31
                32          32
                33          33
                34          34
                35          35
                36          36
                37          37
                38          38
                39          39
                40          40
                41          41
                42          42
                43          43
                44          44
                45          45
                46          46
                47          47
                48          48
                49          49
                50          50
                51          51
                52          52
                53          53
                54          54
                55          55
                56          56
                57          57
                58          58
                59          59
                60          60
                61          61
                62          62
                63          63
                64          64
                65          65
                66          66
                67          67
                68          68
                69          69
                70          70
                71          71
                72          72
                73          73
                74          74
                75          75
                76          76
                77          77
                78          78
                79          79
                80          80
                81          81
                82          82
                83          83
                84          84
                85          85
                86          86
                87          87
                88          88
                89          89
                90          90
                91          91
                92          92
                93          93
                94          94
                95          95
                96          96
                97          97
                98          98
                99          99
               100         100
               101         101
               102         102
               103         103
               104         104
               105         105
               106         106
               107         107
               108         108
               109         109
               110         110
               111         111
               112         112
               113         113
               114         114
               115         115
               116         116
               117         117
               118         118
               119         119
               120         120
               121         121
               122         122
               123         123
               124         124
               125         125
               126         126
               127         127
               128         128
               129         129
               130         130
               131         131
               132         132
               133         133
               134         134
               135         135
               136         136
               137         137
               138         138
               139         139
               140         140
               141         141
               142         142
               143         143
               144         144
               145         145
               146         146
               147         147
               148         148
               149         149
               150         150
               151         151
               152         152
               153         153
               154         154
               155         155
               156         156
               157         157
               158         158
               159         159
               160         160
               161         161
               162         162
               163         163
               164         164
               165         165
               166         166
               167         167
               168         168
               169         169
               170         170
               171         171
               172         172
               173         173
               174         174
               175         175
               176         176
               177         177
               178         178
               179         179
               180         180
               181         181
               182         182
               183         183
               184         184
               185         185
               186         186
               187         187
               188         188
               189         189
               190         190
               191         191

----------------------------------------------------------------------------------------

 
 
 KPOINTS: pymatgen with grid density = 659 / numbe

Automatic generation of k-mesh.
 Grid dimensions read from file:
 generate k-points for:    1    1    1

 Generating k-lattice:

  Cartesian coordinates                     Fractional coordinates (reciprocal lattice)
     0.076956498  0.044430855  0.000000000     1.000000000  0.000000000  0.000000000
     0.000000000  0.088861716  0.000000000     0.000000000  1.000000000  0.000000000
     0.000000000  0.000000000  0.064053134     0.000000000  0.000000000  1.000000000

  Length of vectors
     0.088861710  0.088861716  0.064053134

  Shift w.r.t. Gamma in fractional coordinates (k-lattice)
     0.000000000  0.000000000  0.000000000

 
 Subroutine IBZKPT returns following result:
 ===========================================
 
 Found      1 irreducible k-points:
 
 Following reciprocal coordinates:
            Coordinates               Weight
  0.000000  0.000000  0.000000      1.000000
 
 Following cartesian coordinates:
            Coordinates               Weight
  0.000000  0.000000  0.000000      1.000000
 
 
 Subroutine IBZKPT_HF returns following result:
 ==============================================
 
 Found      1 k-points in 1st BZ
 the following      1 k-points will be used (e.g. in the exchange kernel)
 Following reciprocal coordinates:   # in IRBZ
  0.000000  0.000000  0.000000    1.00000000   1 t-inv F


--------------------------------------------------------------------------------------------------------




 Dimension of arrays:
   k-points           NKPTS =      1   k-points in BZ     NKDIM =      1   number of bands    NBANDS=   1056
   number of dos      NEDOS =    301   number of ions     NIONS =    191
   non local maximal  LDIM  =      6   non local SUM 2l+1 LMDIM =     18
   total plane-waves  NPLWV = 327680
   max r-space proj   IRMAX =   2305   max aug-charges    IRDMAX=   6476
   dimension x,y,z NGX =    64 NGY =   64 NGZ =   80
   dimension x,y,z NGXF=   128 NGYF=  128 NGZF=  160
   support grid    NGXF=   128 NGYF=  128 NGZF=  160
   ions per type =              95  95   1
   NGX,Y,Z   is equivalent  to a cutoff of   8.19,  8.19,  8.52 a.u.
   NGXF,Y,Z  is equivalent  to a cutoff of  16.38, 16.38, 17.04 a.u.

 SYSTEM =  zno                                     
 POSCAR =    Zn2 O2                                

 Startparameter for this run:
   NWRITE =      2    write-flag & timer
   PREC   = normal    normal or accurate (medium, high low for compatibility)
   ISTART =      1    job   : 0-new  1-cont  2-samecut
   ICHARG =      1    charge: 1-file 2-atom 10-const
   ISPIN  =      2    spin polarized calculation?
   LNONCOLLINEAR =      F non collinear calculations
   LSORBIT =      F    spin-orbit coupling
   INIWAV =      1    electr: 0-lowe 1-rand  2-diag
   LASPH  =      F    aspherical Exc in radial PAW
 Electronic Relaxation 1
   ENCUT  =  400.0 eV  29.40 Ry    5.42 a.u.  21.19 21.19 25.46*2*pi/ulx,y,z
   ENINI  =  400.0     initial cutoff
   ENAUG  =  605.4 eV  augmentation charge cutoff
   NELM   =   1000;   NELMIN=  4; NELMDL=  0     # of ELM steps 
   EDIFF  = 0.1E-05   stopping-criterion for ELM
   LREAL  =      T    real-space projection
   NLSPLINE    = F    spline interpolate recip. space projectors
   LCOMPAT=      F    compatible to vasp.4.4
   GGA_COMPAT  = T    GGA compatible to vasp.4.4-vasp.4.6
   LMAXPAW     = -100 max onsite density
   LMAXMIX     =    2 max onsite mixed and CHGCAR
   VOSKOWN=      0    Vosko Wilk Nusair interpolation
   ROPT   =   -0.00050  -0.00050  -0.00050
 Ionic relaxation
   EDIFFG = 0.1E-01   stopping-criterion for IOM
   NSW    =     30    number of steps for IOM
   NBLOCK =      1;   KBLOCK =     30    inner block; outer block 
   IBRION =      2    ionic relax: 0-MD 1-quasi-New 2-CG
   NFREE  =      1    steps in history (QN), initial steepest desc. (CG)
   ISIF   =      2    stress and relaxation
   IWAVPR =     11    prediction:  0-non 1-charg 2-wave 3-comb
   ISYM   =      3    0-nonsym 1-usesym 2-fastsym
   LCORR  =      T    Harris-Foulkes like correction to forces

   POTIM  = 0.2000    time-step for ionic-motion
   TEIN   =    0.0    initial temperature
   TEBEG  =    0.0;   TEEND  =   0.0 temperature during run
   SMASS  =  -3.00    Nose mass-parameter (am)
   estimated Nose-frequenzy (Omega)   =  0.10E-29 period in steps = 0.31E+47 mass=  -0.386E-26a.u.
   SCALEE = 1.0000    scale energy and forces
   NPACO  =    256;   APACO  = 10.0  distance and # of slots for P.C.
   PSTRESS=    0.0 pullay stress

  Mass of Ions in am
   POMASS =  65.39 16.00 95.94
  Ionic Valenz
   ZVAL   =  12.00  6.00 14.00
  Atomic Wigner-Seitz radii
   RWIGS  =  -1.00 -1.00 -1.00
  virtual crystal weights 
   VCA    =   1.00  1.00  1.00
   NELECT =    1722.0000    total number of electrons
   NUPDOWN=      -1.0000    fix difference up-down

 DOS related values:
   EMIN   =  10.00;   EMAX   =-10.00  energy-range for DOS
   EFERMI =   0.00;   METHOD = LEGACY      
   ISMEAR =    -2;   SIGMA  =   0.01  broadening in eV -4-tet -1-fermi 0-gaus

 Electronic relaxation 2 (details)
   IALGO  =     53    algorithm
   LDIAG  =      T    sub-space diagonalisation (order eigenvalues)
   LSUBROT=      F    optimize rotation matrix (better conditioning)
   TURBO    =      0    0=normal 1=particle mesh
   IRESTART =      0    0=no restart 2=restart with 2 vectors
   NREBOOT  =      0    no. of reboots
   NMIN     =      0    reboot dimension
   EREF     =   0.00    reference energy to select bands
   IMIX   =      4    mixing-type and parameters
     AMIX     =   0.40;   BMIX     =  1.00
     AMIX_MAG =   1.60;   BMIX_MAG =  1.00
     AMIN     =   0.10
     WC   =   100.;   INIMIX=   1;  MIXPRE=   1;  MAXMIX= -45

 Intra band minimization:
   WEIMIN = 0.0010     energy-eigenvalue tresh-hold
   EBREAK =  0.24E-09  absolut break condition
   DEPER  =   0.30     relativ break condition  

   TIME   =   0.30     timestep for ELM

  volume/ion in A,a.u.               =      11.95        80.66
  Fermi-wavevector in a.u.,A,eV,Ry     =   1.490228  2.816122 30.215533  2.220779
  Thomas-Fermi vector in A             =   2.603036
 
 Write flags
   LWAVE        =      T    write WAVECAR
   LDOWNSAMPLE  =      F    k-point downsampling of WAVECAR
   LCHARG       =      T    write CHGCAR
   LVTOT        =      F    write LOCPOT, total local potential
   LVHAR        =      T    write LOCPOT, Hartree potential only
   LELF         =      F    write electronic localiz. function (ELF)
   LORBIT       =     11    0 simple, 1 ext, 2 COOP (PROOUT), +10 PAW based schemes


 Dipole corrections
   LMONO  =      F    monopole corrections only (constant potential shift)
   LDIPOL =      F    correct potential (dipole corrections)
   IDIPOL =      0    1-x, 2-y, 3-z, 4-all directions 
   EPSILON=  1.0000000 bulk dielectric constant

 Exchange correlation treatment:
   GGA     =    PE    GGA type
   LEXCH   =     8    internal setting for exchange type
   LIBXC   =     F    Libxc                    
   VOSKOWN =     0    Vosko Wilk Nusair interpolation
   EXXOEP  =     0    0=HF, 1=EXX-LHF (local Hartree Fock) 2=EXX OEP
   LHFCALC =     T    Hartree Fock is set to
   LSYMGRAD=     F    symmetrize gradient (conserves proper symmetry)
   PRECFOCK=normal    Normal, Fast or Accurate (Low or Medium for compatibility)
   LRHFCALC=     F    long range Hartree Fock
   LRSCOR  =     F    long range correlation only (use DFT for short range part)
   LTHOMAS =     F    Thomas Fermi screening in HF
   LMODELHF=     F    short range full HF, long range fraction AEXX
   FOCKCORR=     1    mode to apply convergence corrections
   LFOCKACE=     T    use Adeptively-Compressed-Exchange operator
   ENCUT4O =  -1.0   cutoff for four orbital integrals eV
   LMAXFOCK=     4    L truncation for augmentation on plane wave grid
   LMAXFOCKAE=  -1    L truncation for all-electron charge restoration on plane wave grid
   NMAXFOCKAE=   1    number of basis functions for all-electron charge restoration
   LFOCKAEDFT=     F  apply the AE augmentation even for DFT
   NKREDX  =     1    reduce k-point grid by
   NKREDY  =     1    reduce k-point grid by
   NKREDZ  =     1    reduce k-point grid by
   SHIFTRED=     F    shift reduced grid of Gamma
   HFKIDENT=     F    idential grid for each k-point
   ODDONLY =     F    use only odd q-grid points
   EVENONLY=     F    use only even q-grid points
   HFALPHA =   -1.0000 decay constant for conv. correction
   MCALPHA =    0.0000 extent of test-charge in conv. correction in multipole expansion
   AEXX    =    0.3750 exact exchange contribution
   HFSCREEN=    0.2000 screening length (either q_TF or 0.3 A-1)
   HFSCREENC=   0.2000 screening length for correlation (either q_TF or 0.3 A-1)
   HFRCUT  =    0.0000 spherical cutoff for potential kernel
   ALDAX   =    0.6250 LDA exchange part
   AGGAX   =    0.6250 GGA exchange part
   ALDAC   =    1.0000 LDA correlation
   AGGAC   =    1.0000 GGA correlation
   ENCUTFOCK=  -1.0 apply spherical cutoff to Coloumb kernel
   NBANDSGWLOW=     1    first orbital included in HF term
   NBLOCK_FOCK=    64    blocking factor in FOCK_ACC

 Linear response parameters
   LEPSILON=     F    determine dielectric tensor
   LRPA    =     F    only Hartree local field effects (RPA)
   LNABLA  =     F    use nabla operator in PAW spheres
   LVEL    =     F    velocity operator in full k-point grid
   CSHIFT  =0.1000    complex shift for real part using Kramers Kronig
   OMEGAMAX=  -1.0    maximum frequency
   DEG_THRESHOLD= 0.2000000E-02 threshold for treating states as degnerate
   RTIME   =   -0.100 relaxation time in fs
  (WPLASMAI=    0.000 imaginary part of plasma frequency in eV, 0.658/RTIME)
   DFIELD  = 0.0000000 0.0000000 0.0000000 field for delta impulse in time
 
  Optional k-point grid parameters
   LKPOINTS_OPT  =     F    use optional k-point grid
   KPOINTS_OPT_MODE=     1    mode for optional k-point grid
 
 Orbital magnetization related:
   ORBITALMAG=     F  switch on orbital magnetization
   LCHIMAG   =     F  perturbation theory with respect to B field
   DQ        =  0.001000  dq finite difference perturbation B field
   LLRAUG    =     F  two centre corrections for induced B field
   LBONE     =     F  B-component reconstruction in AE one-centre
   LVGVCALC  =     T  calculate vGv susceptibility
   LVGVAPPL  =     F  apply vGv susceptibility instead of pGv for G=0

 Random number generation:
   RANDOM_GENERATOR = DEFAULT
   PCG_SEED         = not used


--------------------------------------------------------------------------------------------------------


 conjugate gradient relaxation of ions
 charge density and potential will be updated during run
 spin polarized calculation
 Conjugate gradient for all bands (Freysoldt, et al. PRB 79, 241103 (2009))
 perform sub-space diagonalisation
    before iterative eigenvector-optimisation
 modified Broyden-mixing scheme, WC =      100.0
 initial mixing is a Kerker type mixing with AMIX =  0.4000 and BMIX =      1.0000
 Hartree-type preconditioning will be used
 using additional bands          195
 real space projection scheme for non local part
 use partial core corrections
 no Harris-corrections to forces 
 use gradient corrections 
 use of overlap-Matrix (Vanderbilt PP)
 partial occupancies read from INCAR or WAVECAR (fixed during run)


--------------------------------------------------------------------------------------------------------


  energy-cutoff  :      400.00
  volume of cell :     2282.97
      direct lattice vectors                 reciprocal lattice vectors
    12.994354248  0.000000000  0.000000000     0.076956498  0.044430855  0.000000000
    -6.497176647 11.253440059  0.000000000     0.000000000  0.088861716  0.000000000
     0.000000000  0.000000000 15.612038612     0.000000000  0.000000000  0.064053134

  length of vectors
    12.994354248 12.994353294 15.612038612     0.088861710  0.088861716  0.064053134


 
 old parameters found on file WAVECAR:
  energy-cutoff  :      400.00
  volume of cell :     2282.97
      direct lattice vectors                 reciprocal lattice vectors
    12.994354248  0.000000000  0.000000000     0.076956498  0.044430855  0.000000000
    -6.497176647 11.253440059  0.000000000     0.000000000  0.088861716  0.000000000
     0.000000000  0.000000000 15.612038612     0.000000000  0.000000000  0.064053134

  length of vectors

 
 k-points in units of 2pi/SCALE and weight: pymatgen with grid density = 659 / numbe
   0.00000000  0.00000000  0.00000000       1.000
 
 k-points in reciprocal lattice and weights: pymatgen with grid density = 659 / numbe
   0.00000000  0.00000000  0.00000000       1.000
 
 position of ions in fractional coordinates (direct lattice) 
   0.16658936  0.08341065  0.16546291
   0.16672597  0.08327404  0.49973529
   0.16651871  0.08348129  0.83372033
   0.16606320  0.33303161  0.16562550
   0.16506935  0.33253468  0.49955400
   0.16632427  0.33316214  0.83371561
   0.16658936  0.58317869  0.16546291
   0.16672597  0.58345191  0.49973529
   0.16651871  0.58303740  0.83372033
   0.16696944  0.83348470  0.16545344
   0.16791264  0.83395630  0.50020465
   0.16694229  0.83347112  0.83383649
   0.41651530  0.08303057  0.16545344
   0.41604370  0.08208737  0.50020465
   0.41652888  0.08305772  0.83383649
   0.41517172  0.33242064  0.16580828
   0.40709016  0.32710646  0.50210004
   0.41759263  0.33383476  0.83344112
   0.41517172  0.58275105  0.16580828
   0.40709016  0.57998366  0.50210004
   0.41759263  0.58375783  0.83344112
   0.41651530  0.83348470  0.16545344
   0.41604370  0.83395630  0.50020465
   0.41652888  0.83347112  0.83383649
   0.66682131  0.08341065  0.16546291
   0.66654809  0.08327404  0.49973529
   0.66696260  0.08348129  0.83372033
   0.66724895  0.33242064  0.16580828
   0.67001634  0.32710646  0.50210004
   0.66624217  0.33383476  0.83344112
   0.66666669  0.58333331  0.16687626
   0.66666669  0.58333331  0.83496465
   0.66724895  0.83482828  0.16580828
   0.67001634  0.84290984  0.50210004
   0.66624217  0.83240737  0.83344112
   0.91696842  0.08393681  0.16562550
   0.91746535  0.08493066  0.49955400
   0.91683789  0.08367574  0.83371561
   0.91696842  0.33303161  0.16562550
   0.91746535  0.33253468  0.49955400
   0.91683789  0.33316214  0.83371561
   0.91757939  0.58275105  0.16580828
   0.92289357  0.57998366  0.50210004
   0.91616527  0.58375783  0.83344112
   0.91757939  0.83482828  0.16580828
   0.92289357  0.84290984  0.50210004
   0.91616527  0.83240737  0.83344112
   0.08331701  0.16668299  0.99974053
   0.08328772  0.16671229  0.33217498
   0.08326606  0.16673395  0.66680796
   0.08331701  0.41663404  0.99974053
   0.08328772  0.41657545  0.33217498
   0.08326606  0.41653214  0.66680796
   0.08331989  0.66665426  0.99964932
   0.08505553  0.66743786  0.33180113
   0.08417102  0.66722338  0.66786339
   0.08331989  0.91666566  0.99964932
   0.08505553  0.91761770  0.33180113
   0.08417102  0.91694768  0.66786339
   0.33333437  0.16668012  0.99964932
   0.33238233  0.16494448  0.33180113
   0.33305235  0.16582899  0.66786339
   0.33334276  0.41667140  0.99965660
   0.33160791  0.41580397  0.33214448
   0.33213491  0.41606747  0.66855550
   0.33333437  0.66665426  0.99964932
   0.33238233  0.66743786  0.33180113
   0.33305235  0.66722338  0.66786339
   0.33333334  0.91666669  0.99968191
   0.33333334  0.91666669  0.33211805
   0.33333334  0.91666669  0.66700429
   0.58334574  0.16668012  0.99964932
   0.58256214  0.16494448  0.33180113
   0.58277662  0.16582899  0.66786339
   0.58326015  0.41652036  0.00138227
   0.58163461  0.41326928  0.32691921
   0.58462106  0.41924217  0.66458160
   0.58326015  0.66673985  0.00138227
   0.58163461  0.66836539  0.32691921
   0.58462106  0.66537894  0.66458160
   0.58334574  0.91666566  0.99964932
   0.58256214  0.91761770  0.33180113
   0.58277662  0.91694768  0.66786339
   0.83336596  0.16668299  0.99974053
   0.83342455  0.16671229  0.33217498
   0.83346786  0.16673395  0.66680796
   0.83332860  0.41667140  0.99965660
   0.83419603  0.41580397  0.33214448
   0.83393253  0.41606747  0.66855550
   0.83347964  0.66673985  0.00138227
   0.83673072  0.66836539  0.32691921
   0.83075783  0.66537894  0.66458160
   0.83332860  0.91665727  0.99965660
   0.83419603  0.91839212  0.33214448
   0.83393253  0.91786512  0.66855550
   0.16653052  0.08346948  0.29312031
   0.16679468  0.08320533  0.62644191
   0.16667362  0.08332639  0.96044386
   0.16648759  0.33324380  0.29330330
   0.16720283  0.33360142  0.62621584
   0.16688469  0.33344235  0.96045605
   0.16653052  0.58306102  0.29312031
   0.16679468  0.58358933  0.62644191
   0.16667362  0.58334721  0.96044386
   0.16667151  0.83333573  0.29307936
   0.16627606  0.83313801  0.62675207
   0.16655728  0.83327862  0.96048949
   0.41666427  0.08332850  0.29307936
   0.41686199  0.08372395  0.62675207
   0.41672138  0.08344273  0.96048949
   0.41631591  0.33318676  0.29460991
   0.41807741  0.33482233  0.62700804
   0.41767512  0.33394589  0.96033399
   0.41631591  0.58312912  0.29460991
   0.41807741  0.58325505  0.62700804
   0.41767512  0.58372920  0.96033399
   0.41666427  0.83333573  0.29307936
   0.41686199  0.83313801  0.62675207
   0.41672138  0.83327862  0.96048949
   0.66693898  0.08346948  0.29312031
   0.66641067  0.08320533  0.62644191
   0.66665279  0.08332639  0.96044386
   0.66687088  0.33318676  0.29460991
   0.66674495  0.33482233  0.62700804
   0.66627080  0.33394589  0.96033399
   0.66666669  0.58333331  0.29916795
   0.66666669  0.58333331  0.96122744
   0.66687088  0.83368409  0.29460991
   0.66674495  0.83192259  0.62700804
   0.66627080  0.83232488  0.96033399
   0.91675623  0.08351242  0.29330330
   0.91639861  0.08279718  0.62621584
   0.91655768  0.08311531  0.96045605
   0.91675623  0.33324380  0.29330330
   0.91639861  0.33360142  0.62621584
   0.91655768  0.33344235  0.96045605
   0.91681327  0.58312912  0.29460991
   0.91517770  0.58325505  0.62700804
   0.91605414  0.58372920  0.96033399
   0.91681327  0.83368409  0.29460991
   0.91517770  0.83192259  0.62700804
   0.91605414  0.83232488  0.96033399
   0.08335067  0.16664934  0.12690317
   0.08363493  0.16636508  0.45970668
   0.08332780  0.16667221  0.79331346
   0.08335067  0.41670135  0.12690317
   0.08363493  0.41726988  0.45970668
   0.08332780  0.41665561  0.79331346
   0.08321425  0.66662066  0.12700914
   0.08366135  0.66743162  0.45946118
   0.08284223  0.66653044  0.79391189
   0.08321425  0.91659363  0.12700914
   0.08366135  0.91622976  0.45946118
   0.08284223  0.91631183  0.79391189
   0.33340640  0.16678576  0.12700914
   0.33377027  0.16633866  0.45946118
   0.33368820  0.16715778  0.79391189
   0.33333801  0.41666902  0.12724927
   0.33428042  0.41714023  0.45994847
   0.33370726  0.41685365  0.79424862
   0.33340640  0.66662066  0.12700914
   0.33377027  0.66743162  0.45946118
   0.33368820  0.66653044  0.79391189
   0.33333334  0.91666669  0.12680607
   0.33333334  0.91666669  0.45952982
   0.33333334  0.91666669  0.79348824
   0.58337934  0.16678576  0.12700914
   0.58256838  0.16633866  0.45946118
   0.58346956  0.16715778  0.79391189
   0.58349415  0.41698837  0.12955322
   0.58578055  0.42156116  0.46517753
   0.58443624  0.41887254  0.79007569
   0.58349415  0.66650585  0.12955322
   0.58578055  0.66421945  0.46517753
   0.58443624  0.66556376  0.79007569
   0.58337934  0.91659363  0.12700914
   0.58256838  0.91622976  0.45946118
   0.58346956  0.91631183  0.79391189
   0.83329865  0.16664934  0.12690317
   0.83273012  0.16636508  0.45970668
   0.83334439  0.16667221  0.79331346
   0.83333098  0.41666902  0.12724927
   0.83285977  0.41714023  0.45994847
   0.83314635  0.41685365  0.79424862
   0.83301163  0.66650585  0.12955322
   0.82843884  0.66421945  0.46517753
   0.83112746  0.66556376  0.79007569
   0.83333098  0.91666202  0.12724927
   0.83285977  0.91571961  0.45994847
   0.83314635  0.91629277  0.79424862
   0.66666669  0.58333331  0.49724961
 
 position of ions in cartesian coordinates  (Angst):
   1.62278745  0.93865673  2.58321328
   1.62545014  0.93711942  7.80188660
   1.62141043  0.93945175 13.01607395
  -0.00588111  3.74775124  2.58575169
  -0.01556694  3.74215912  7.79905639
  -0.00333683  3.74922018 13.01600029
  -1.62429380  6.56276642  2.58321328
  -1.62429380  6.56584104  7.80188660
  -1.62429380  6.56117638 13.01607395
  -3.24563725  9.37957008  2.58306557
  -3.23644503  9.38487721  7.80921428
  -3.24590190  9.37941729 13.01788748
   4.87288313  0.93437951  2.58306557
   4.87288313  0.92376525  7.80921428
   4.87288313  0.93468510 13.01788748
   3.23509280  3.74087577  2.58860520
   3.16460523  3.68107296  7.83880517
   3.25736307  3.75678951 13.01171495
   1.60865192  6.55795400  2.58860520
   1.52161738  6.52681139  7.83880517
   1.63356877  6.56928374 13.01171495
  -0.00294992  9.37957008  2.58306557
  -0.01214214  9.38487721  7.80921428
  -0.00268527  9.37941729 13.01788748
   8.12297862  0.93865673  2.58321328
   8.12031592  0.93711942  7.80188660
   8.12435564  0.93945175 13.01607395
   6.51067361  3.74087577  2.58860520
   6.58116117  3.68107296  7.83880517
   6.48840334  3.75678951 13.01171495
   4.87288352  6.56450647  2.60527855
   4.87288352  6.56450647 13.03550032
   3.24644245  9.39468999  2.58860520
   3.22989548  9.48563541  7.83880517
   3.24908902  9.36744650 13.01171495
  11.37006025  0.94457781  2.58575169
  11.37006025  0.95576204  7.79905639
  11.37006025  0.94163993 13.01600029
   9.75164732  3.74775124  2.58575169
   9.76133315  3.74215912  7.79905639
   9.74910304  3.74922018 13.01600029
   8.13711511  6.55795400  2.58860520
   8.22414965  6.52681139  7.83880517
   8.11219827  6.56928374 13.01171495
   6.49932483  9.39468999  2.58860520
   6.51587181  9.48563541  7.83880517
   6.49667825  9.36744650 13.01171495
  -0.00031806  1.87575708 15.60798773
  -0.00088908  1.87608676  5.18592869
  -0.00131121  1.87633048 10.41023158
  -1.62429418  4.68856623 15.60798773
  -1.62429418  4.68790687  5.18592869
  -1.62429418  4.68741944 10.41023158
  -3.24868235  7.50215378 15.60656372
  -3.23122008  7.51097201  5.18009213
  -3.24132008  7.50855830 10.42670898
  -4.87305060 10.31564211 15.60656372
  -4.85668265 10.32635577  5.18009213
  -4.86382299 10.31881577 10.42670898
   3.24851465  1.87572473 15.60656372
   3.24742032  1.85619285  5.18009213
   3.25037999  1.86614656 10.42670898
   1.62438629  4.68898660 15.60667741
   1.60747880  4.67922505  5.18545252
   1.61261487  4.68219037 10.43751426
   0.00009432  7.50215378 15.60656372
  -0.01736795  7.51097201  5.18009213
  -0.00726795  7.50855830 10.42670898
  -1.62429385 10.31565362 15.60707264
  -1.62429385 10.31565362  5.18503989
  -1.62429385 10.31565362 10.41329670
   6.49725099  1.87572473 15.60656372
   6.49834531  1.85619285  5.18009213
   6.49538565  1.86614656 10.42670898
   4.87288265  4.68728691  0.02158004
   4.87288264  4.65070105  5.10387534
   4.87288265  4.71791665 10.37547357
   3.24716242  7.50311694  0.02158004
   3.21547814  7.52140987  5.10387534
   3.27368855  7.48780207 10.37547357
   1.62446242 10.31564211 15.60656372
   1.60809447 10.32635577  5.18009213
   1.61523480 10.31881577 10.42670898
   9.74608361  1.87575708 15.60798773
   9.74665463  1.87608676  5.18592869
   9.74707676  1.87633048 10.41023158
   8.12137939  4.68898660 15.60667741
   8.13828688  4.67922505  5.18545252
   8.13315081  4.68219037 10.43751426
   6.49860311  7.50311694  0.02158004
   6.53028739  7.52140987  5.10387534
   6.47207698  7.48780207 10.37547357
   4.87288288 10.31554759 15.60667741
   4.87288288 10.33507068  5.18545252
   4.87288288 10.32914005 10.43751426
   1.62164064  0.93931883  4.57620567
   1.62678944  0.93634617  9.78003524
   1.62442980  0.93770851 14.99448667
  -0.00174515  3.75013914  4.57906250
   0.00522543  3.75416360  9.77650581
   0.00212496  3.75237355 14.99467694
  -1.62429380  6.56144221  4.57620567
  -1.62429380  6.56738753  9.78003524
  -1.62429380  6.56466285 14.99448667
  -3.24854084  9.37789369  4.57556629
  -3.25239479  9.37566861  9.78487744
  -3.24965409  9.37725096 14.99519906
   4.87288313  0.93773229  4.57556629
   4.87288313  0.94218245  9.78487744
   4.87288313  0.93901775 14.99519906
   3.24498321  3.74949720  4.59946128
   3.25724613  3.76790297  9.78887378
   3.25771305  3.75804001 14.99277126
   1.62106351  6.56220863  4.59946128
   1.64313484  6.56362575  9.78887378
   1.63482672  6.56896159 14.99277126
  -0.00004633  9.37789369  4.57556629
   0.00380762  9.37566861  9.78487744
   0.00106692  9.37725096 14.99519906
   8.12412542  0.93931883  4.57620567
   8.11897662  0.93634617  9.78003524
   8.12133627  0.93770851 14.99448667
   6.50078320  3.74949720  4.59946128
   6.48852027  3.76790297  9.78887378
   6.48805336  3.75804001 14.99277126
   4.87288352  6.56450647  4.67062155
   4.87288352  6.56450647 15.00671989
   3.24896362  9.38181392  4.59946128
   3.25877203  9.36199103  9.78887378
   3.24999699  9.36651815 14.99277126
  11.37006025  0.93980202  4.57906250
  11.37006025  0.93175308  9.77650581
  11.37006025  0.93533320 14.99467694
   9.74751136  3.75013914  4.57906250
   9.74054078  3.75416360  9.77650581
   9.74364125  3.75237355 14.99467694
   8.12470353  6.56220863  4.59946128
   8.10263220  6.56362575  9.78887378
   8.11094031  6.56896159 14.99277126
   6.49680365  9.38181392  4.59946128
   6.48699525  9.36199103  9.78887378
   6.49577028  9.36651815 14.99277126
   0.00033792  1.87537835  1.98121713
   0.00587865  1.87217941  7.17695843
  -0.00010784  1.87563571 12.38524036
  -1.62429418  4.68932369  1.98121713
  -1.62429418  4.69572157  7.17695843
  -1.62429418  4.68880897 12.38524036
  -3.24983674  7.50177566  1.98287158
  -3.24929599  7.51090175  7.17312561
  -3.25408467  7.50076031 12.39458302
  -4.87395525 10.31483144  1.98287158
  -4.86578145 10.31073670  7.17312561
  -4.87695854 10.31166030 12.39458302
   3.24876438  1.87691352  1.98287158
   3.25639743  1.87188217  7.17312561
   3.25000903  1.88110001 12.39458302
   1.62433992  4.68895982  1.98662046
   1.63352450  4.69426254  7.18073331
   1.62793858  4.69103751 12.39984017
   0.00124871  7.50177566  1.98287158
   0.00070796  7.51090175  7.17312561
   0.00549664  7.50076031 12.39458302
  -1.62429385 10.31565362  1.97970119
  -1.62429385 10.31565362  7.17419732
  -1.62429385 10.31565362 12.38796899
   6.49700125  1.87691352  1.98287158
   6.48936820  1.87188217  7.17312561
   6.49575660  1.88110001 12.39458302
   4.87288265  4.69255360  2.02258980
   4.87288265  4.74401329  7.26236949
   4.87288265  4.71375705 12.33469221
   3.25172350  7.50048360  2.02258980
   3.29628891  7.47475375  7.26236949
   3.27008624  7.48988187 12.33469221
   1.62536707 10.31483144  1.98287158
   1.61719327 10.31073670  7.17312561
   1.62837035 10.31166030 12.39458302
   9.74542763  1.87537835  1.98121713
   9.73988690  1.87217941  7.17695843
   9.74587338  1.87563571 12.38524036
   8.12142576  4.68895982  1.98662046
   8.11224118  4.69426254  7.18073331
   8.11782710  4.69103751 12.39984017
   6.49404202  7.50048360  2.02258980
   6.44947662  7.47475375  7.26236949
   6.47567929  7.48988187 12.33469221
   4.87288288 10.31560114  1.98662046
   4.87288288 10.30499570  7.18073331
   4.87288288 10.31144577 12.39984017
   4.87288352  6.56450647  7.76308017
 


--------------------------------------------------------------------------------------------------------


 use parallel FFT for orbitals z direction half grid
 k-point   1 :   0.0000 0.0000 0.0000  plane waves:   20744

 maximum and minimum number of plane-waves per node :      2599     2585

 maximum number of plane-waves:     20744
 maximum index in each direction: 
   IXMAX=   21   IYMAX=   21   IZMAX=   25
   IXMIN=  -21   IYMIN=  -21   IZMIN=    0


 real space projection operators:
  total allocation   :      30024.28 KBytes
  max/ min on nodes  :       4073.69       3462.97


 parallel 3D FFT for wavefunctions:
    minimum data exchange during FFTs selected (reduces bandwidth)
 parallel 3D FFT for charge:
    minimum data exchange during FFTs selected (reduces bandwidth)

 
 Radii for the augmentation spheres in the non-local exchange
 for species   1 augmentation radius   1.190 (default was   0.952)
       energy cutoff for augmentation   1600.0
 for species   2 augmentation radius   0.902 (default was   0.722)
       energy cutoff for augmentation   1600.0
 for species   3 augmentation radius   1.352 (default was   1.082)
       energy cutoff for augmentation   1600.0

 real space projection operators:
  total allocation   :      22050.84 KBytes
  max/ min on nodes  :       2926.25       2503.43

 Maximum index for augmentation-charges in exchange          203
  SETUP_FOCK is finished

[...]
      8.11118      4.69487      7.17648         0.020031     -0.011565      0.010907
      8.11933      4.69017     12.39964         0.001820     -0.001051      0.012202
      6.49571      7.50145      2.02510         0.018951      0.010942     -0.026364
      6.41719      7.45611      7.24948        -0.104225     -0.060174      0.001607
      6.48760      7.49676     12.36282         0.009246      0.005338      0.059104
      4.87288     10.31553      1.98924         0.000000      0.013200     -0.008771
      4.87288     10.30377      7.17648         0.000000      0.023130      0.010907
      4.87288     10.31318     12.39964         0.000000      0.002102      0.012202
      4.87288      6.56451      7.74689         0.000000      0.000000     -0.197384
 -----------------------------------------------------------------------------------
    total drift:                               -0.001995      0.000970      0.094262


--------------------------------------------------------------------------------------------------------



  FREE ENERGIE OF THE ION-ELECTRON SYSTEM (eV)
  ---------------------------------------------------
  free  energy   TOTEN  =     -1221.71243076 eV

  energy  without entropy=    -1221.71243076  energy(sigma->0) =    -1221.71243076
 
 d Force = 0.9445602E-03[ 0.533E-03, 0.136E-02]  d Energy = 0.8503940E-03 0.942E-04
 d Force = 0.6597727E+00[ 0.644E+00, 0.676E+00]  d Ewald  = 0.6597733E+00-0.586E-06


--------------------------------------------------------------------------------------------------------


    POTLOK:  cpu time      1.0547: real time      1.0724


--------------------------------------------------------------------------------------------------------




--------------------------------------------------------------------------------------------------------


  
 reached required accuracy - stopping structural energy minimisation
 writing wavefunctions
     LOOP+:  cpu time   3413.4157: real time   3498.4362
    4ORBIT:  cpu time      0.0000: real time      0.0000



 total charge

# of ion       s       p       d       tot
------------------------------------------
    1        0.409   0.480   9.952  10.840
    2        0.408   0.476   9.949  10.834
    3        0.407   0.475   9.950  10.832
    4        0.409   0.479   9.952  10.840
    5        0.408   0.475   9.948  10.831
    6        0.408   0.476   9.950  10.833
    7        0.409   0.480   9.952  10.840
    8        0.408   0.476   9.949  10.834
    9        0.407   0.475   9.950  10.832
   10        0.409   0.480   9.952  10.840
   11        0.408   0.479   9.952  10.839
   12        0.408   0.476   9.950  10.833
   13        0.409   0.480   9.952  10.840
   14        0.408   0.479   9.952  10.839
   15        0.408   0.476   9.950  10.833
   16        0.409   0.478   9.951  10.838
   17        0.419   0.475   9.945  10.839
   18        0.407   0.473   9.949  10.829
   19        0.409   0.478   9.951  10.838
   20        0.419   0.475   9.945  10.839
   21        0.407   0.473   9.949  10.829
   22        0.409   0.480   9.952  10.840
   23        0.408   0.479   9.952  10.839
   24        0.408   0.476   9.950  10.833
   25        0.409   0.480   9.952  10.840
   26        0.408   0.476   9.949  10.834
   27        0.407   0.475   9.950  10.832
   28        0.409   0.478   9.951  10.838
   29        0.419   0.475   9.945  10.839
   30        0.407   0.473   9.949  10.829
   31        0.411   0.478   9.950  10.839
   32        0.407   0.474   9.949  10.830
   33        0.409   0.478   9.951  10.838
   34        0.419   0.475   9.945  10.839
   35        0.407   0.473   9.949  10.829
   36        0.409   0.479   9.952  10.840
   37        0.408   0.475   9.948  10.831
   38        0.408   0.476   9.950  10.833
   39        0.409   0.479   9.952  10.840
   40        0.408   0.475   9.948  10.831
   41        0.408   0.476   9.950  10.833
   42        0.409   0.478   9.951  10.838
   43        0.419   0.475   9.945  10.839
   44        0.407   0.473   9.949  10.829
   45        0.409   0.478   9.951  10.838
   46        0.419   0.475   9.945  10.839
   47        0.407   0.473   9.949  10.829
   48        0.408   0.478   9.951  10.837
   49        0.409   0.479   9.952  10.840
   50        0.406   0.472   9.948  10.826
   51        0.408   0.478   9.951  10.837
   52        0.409   0.479   9.952  10.840
   53        0.406   0.472   9.948  10.826
   54        0.408   0.476   9.950  10.834
   55        0.409   0.480   9.953  10.842
   56        0.408   0.470   9.946  10.824
   57        0.408   0.476   9.950  10.834
   58        0.409   0.480   9.953  10.842
   59        0.408   0.470   9.946  10.824
   60        0.408   0.476   9.950  10.834
   61        0.409   0.480   9.953  10.842
   62        0.408   0.470   9.946  10.824
   63        0.407   0.475   9.950  10.832
   64        0.410   0.482   9.954  10.845
   65        0.407   0.473   9.948  10.829
   66        0.408   0.476   9.950  10.834
   67        0.409   0.480   9.953  10.842
   68        0.408   0.470   9.946  10.824
   69        0.408   0.478   9.951  10.838
   70        0.408   0.478   9.951  10.838
   71        0.408   0.474   9.949  10.830
   72        0.408   0.476   9.950  10.834
   73        0.409   0.480   9.953  10.842
   74        0.408   0.470   9.946  10.824
   75        0.407   0.473   9.949  10.829
   76        0.420   0.472   9.946  10.838
   77        0.434   0.426   9.896  10.756
   78        0.407   0.473   9.949  10.829
   79        0.420   0.472   9.946  10.838
   80        0.434   0.426   9.896  10.756
   81        0.408   0.476   9.950  10.834
   82        0.409   0.480   9.953  10.842
   83        0.408   0.470   9.946  10.824
   84        0.408   0.478   9.951  10.837
   85        0.409   0.479   9.952  10.840
   86        0.406   0.472   9.948  10.826
   87        0.407   0.475   9.950  10.832
   88        0.410   0.482   9.954  10.845
   89        0.407   0.473   9.948  10.829
   90        0.407   0.473   9.949  10.829
   91        0.420   0.472   9.946  10.838
   92        0.434   0.426   9.896  10.756
   93        0.407   0.475   9.950  10.832
   94        0.410   0.482   9.954  10.845
   95        0.407   0.473   9.948  10.829
   96        1.573   3.533   0.000   5.106
   97        1.574   3.522   0.000   5.097
   98        1.573   3.530   0.000   5.103
   99        1.573   3.533   0.000   5.106
  100        1.574   3.525   0.000   5.099
  101        1.573   3.530   0.000   5.103
  102        1.573   3.533   0.000   5.106
  103        1.574   3.522   0.000   5.097
  104        1.573   3.530   0.000   5.103
  105        1.573   3.533   0.000   5.106
  106        1.574   3.528   0.000   5.102
  107        1.573   3.531   0.000   5.104
  108        1.573   3.533   0.000   5.106
  109        1.574   3.528   0.000   5.102
  110        1.573   3.531   0.000   5.104
  111        1.574   3.532   0.000   5.106
  112        1.577   3.517   0.000   5.095
  113        1.573   3.529   0.000   5.102
  114        1.574   3.532   0.000   5.106
  115        1.577   3.517   0.000   5.095
  116        1.573   3.529   0.000   5.102
  117        1.573   3.533   0.000   5.106
  118        1.574   3.528   0.000   5.102
  119        1.573   3.531   0.000   5.104
  120        1.573   3.533   0.000   5.106
  121        1.574   3.522   0.000   5.097
  122        1.573   3.530   0.000   5.103
  123        1.574   3.532   0.000   5.106
  124        1.577   3.517   0.000   5.095
  125        1.573   3.529   0.000   5.102
  126        1.575   3.529   0.000   5.104
  127        1.573   3.527   0.000   5.101
  128        1.574   3.532   0.000   5.106
  129        1.577   3.517   0.000   5.095
  130        1.573   3.529   0.000   5.102
  131        1.573   3.533   0.000   5.106
  132        1.574   3.525   0.000   5.099
  133        1.573   3.530   0.000   5.103
  134        1.573   3.533   0.000   5.106
  135        1.574   3.525   0.000   5.099
  136        1.573   3.530   0.000   5.103
  137        1.574   3.532   0.000   5.106
  138        1.577   3.517   0.000   5.095
  139        1.573   3.529   0.000   5.102
  140        1.574   3.532   0.000   5.106
  141        1.577   3.517   0.000   5.095
  142        1.573   3.529   0.000   5.102
  143        1.573   3.532   0.000   5.106
  144        1.574   3.528   0.000   5.102
  145        1.573   3.529   0.000   5.102
  146        1.573   3.532   0.000   5.106
  147        1.574   3.528   0.000   5.102
  148        1.573   3.529   0.000   5.102
  149        1.573   3.532   0.000   5.105
  150        1.574   3.532   0.000   5.106
  151        1.574   3.529   0.000   5.103
  152        1.573   3.532   0.000   5.105
  153        1.574   3.532   0.000   5.106
  154        1.574   3.529   0.000   5.103
  155        1.573   3.532   0.000   5.105
  156        1.574   3.532   0.000   5.106
  157        1.574   3.529   0.000   5.103
  158        1.573   3.531   0.000   5.105
  159        1.574   3.531   0.000   5.105
  160        1.574   3.531   0.000   5.104
  161        1.573   3.532   0.000   5.105
  162        1.574   3.532   0.000   5.106
  163        1.574   3.529   0.000   5.103
  164        1.573   3.533   0.000   5.106
  165        1.573   3.532   0.000   5.105
  166        1.573   3.529   0.000   5.102
  167        1.573   3.532   0.000   5.105
  168        1.574   3.532   0.000   5.106
  169        1.574   3.529   0.000   5.103
  170        1.574   3.527   0.000   5.101
  171        1.601   3.503   0.000   5.103
  172        1.577   3.522   0.000   5.099
  173        1.574   3.527   0.000   5.101
  174        1.601   3.503   0.000   5.103
  175        1.577   3.522   0.000   5.099
  176        1.573   3.532   0.000   5.105
  177        1.574   3.532   0.000   5.106
  178        1.574   3.529   0.000   5.103
  179        1.573   3.532   0.000   5.106
  180        1.574   3.528   0.000   5.102
  181        1.573   3.529   0.000   5.102
  182        1.573   3.531   0.000   5.105
  183        1.574   3.531   0.000   5.105
  184        1.574   3.531   0.000   5.104
  185        1.574   3.527   0.000   5.101
  186        1.601   3.503   0.000   5.103
  187        1.577   3.522   0.000   5.099
  188        1.573   3.531   0.000   5.105
  189        1.574   3.531   0.000   5.105
  190        1.574   3.531   0.000   5.104
  191        2.385   6.223   3.790  12.398
--------------------------------------------------
tot        190.928 386.470 948.8541526.252



 magnetization (x)

# of ion       s       p       d       tot
------------------------------------------
    1        0.000   0.000  -0.000   0.000
    2        0.001   0.000  -0.000   0.001
    3        0.001   0.000  -0.000   0.001
    4        0.000   0.000  -0.000   0.000
    5        0.001   0.000  -0.000   0.000
    6        0.001   0.000  -0.000   0.001
    7        0.000   0.000  -0.000   0.000
    8        0.001   0.000  -0.000   0.001
    9        0.001   0.000  -0.000   0.001
   10        0.000   0.000  -0.000   0.000
   11        0.000   0.000  -0.000   0.000
   12        0.000   0.000  -0.000   0.000
   13        0.000   0.000  -0.000   0.000
   14        0.000   0.000  -0.000   0.000
   15        0.000   0.000  -0.000   0.000
   16        0.000   0.000  -0.000   0.000
   17        0.002   0.001  -0.000   0.002
   18        0.001   0.000  -0.000   0.001
   19        0.000   0.000  -0.000   0.000
   20        0.002   0.001  -0.000   0.002
   21        0.001   0.000  -0.000   0.001
   22        0.000   0.000  -0.000   0.000
   23        0.000   0.000  -0.000   0.000
   24        0.000   0.000  -0.000   0.000
   25        0.000   0.000  -0.000   0.000
   26        0.001   0.000  -0.000   0.001
   27        0.001   0.000  -0.000   0.001
   28        0.000   0.000  -0.000   0.000
   29        0.002   0.001  -0.000   0.002
   30        0.001   0.000  -0.000   0.001
   31        0.000   0.001   0.000   0.001
   32        0.001  -0.001  -0.000   0.000
   33        0.000   0.000  -0.000   0.000
   34        0.002   0.001  -0.000   0.002
   35        0.001   0.000  -0.000   0.001
   36        0.000   0.000  -0.000   0.000
   37        0.001   0.000  -0.000   0.000
   38        0.001   0.000  -0.000   0.001
   39        0.000   0.000  -0.000   0.000
   40        0.001   0.000  -0.000   0.000
   41        0.001   0.000  -0.000   0.001
   42        0.000   0.000  -0.000   0.000
   43        0.002   0.001  -0.000   0.002
   44        0.001   0.000  -0.000   0.001
   45        0.000   0.000  -0.000   0.000
   46        0.002   0.001  -0.000   0.002
   47        0.001   0.000  -0.000   0.001
   48        0.000   0.000  -0.000   0.000
   49        0.000   0.000  -0.000   0.000
   50        0.001   0.000  -0.000   0.001
   51        0.000   0.000  -0.000   0.000
   52        0.000   0.000  -0.000   0.000
   53        0.001   0.000  -0.000   0.001
   54        0.000   0.000  -0.000   0.000
   55        0.000   0.000  -0.000   0.000
   56        0.001   0.000  -0.000   0.001
   57        0.000   0.000  -0.000   0.000
   58        0.000   0.000  -0.000   0.000
   59        0.001   0.000  -0.000   0.001
   60        0.000   0.000  -0.000   0.000
   61        0.000   0.000  -0.000   0.000
   62        0.001   0.000  -0.000   0.001
   63        0.001   0.000  -0.000   0.001
   64        0.000   0.000  -0.000   0.000
   65        0.000  -0.000  -0.000   0.000
   66        0.000   0.000  -0.000   0.000
   67        0.000   0.000  -0.000   0.000
   68        0.001   0.000  -0.000   0.001
   69        0.000   0.000  -0.000   0.000
   70        0.000   0.000  -0.000   0.000
   71        0.001   0.000  -0.000   0.001
   72        0.000   0.000  -0.000   0.000
   73        0.000   0.000  -0.000   0.000
   74        0.001   0.000  -0.000   0.001
   75        0.000   0.000  -0.000   0.000
   76        0.002   0.001   0.000   0.004
   77        0.015   0.006   0.001   0.022
   78        0.000   0.000  -0.000   0.000
   79        0.002   0.001   0.000   0.004
   80        0.015   0.006   0.001   0.022
   81        0.000   0.000  -0.000   0.000
   82        0.000   0.000  -0.000   0.000
   83        0.001   0.000  -0.000   0.001
   84        0.000   0.000  -0.000   0.000
   85        0.000   0.000  -0.000   0.000
   86        0.001   0.000  -0.000   0.001
   87        0.001   0.000  -0.000   0.001
   88        0.000   0.000  -0.000   0.000
   89        0.000  -0.000  -0.000   0.000
   90        0.000   0.000  -0.000   0.000
   91        0.002   0.001   0.000   0.004
   92        0.015   0.006   0.001   0.022
   93        0.001   0.000  -0.000   0.001
   94        0.000   0.000  -0.000   0.000
   95        0.000  -0.000  -0.000   0.000
   96        0.000  -0.000   0.000   0.000
   97        0.001  -0.000   0.000   0.000
   98        0.000  -0.000   0.000   0.000
   99        0.000  -0.000   0.000   0.000
  100        0.000  -0.000   0.000   0.000
  101        0.000  -0.000   0.000   0.000
  102        0.000  -0.000   0.000   0.000
  103        0.001  -0.000   0.000   0.000
  104        0.000  -0.000   0.000   0.000
  105        0.000  -0.000   0.000   0.000
  106        0.000  -0.000   0.000   0.000
  107        0.000  -0.000   0.000   0.000
  108        0.000  -0.000   0.000   0.000
  109        0.000  -0.000   0.000   0.000
  110        0.000  -0.000   0.000   0.000
  111        0.000  -0.000   0.000   0.000
  112        0.001  -0.001   0.000   0.000
  113        0.000   0.000   0.000   0.001
  114        0.000  -0.000   0.000   0.000
  115        0.001  -0.001   0.000   0.000
  116        0.000   0.000   0.000   0.001
  117        0.000  -0.000   0.000   0.000
  118        0.000  -0.000   0.000   0.000
  119        0.000  -0.000   0.000   0.000
  120        0.000  -0.000   0.000   0.000
  121        0.001  -0.000   0.000   0.000
  122        0.000  -0.000   0.000   0.000
  123        0.000  -0.000   0.000   0.000
  124        0.001  -0.001   0.000   0.000
  125        0.000   0.000   0.000   0.001
  126        0.001   0.007   0.000   0.007
  127        0.000  -0.000   0.000   0.000
  128        0.000  -0.000   0.000   0.000
  129        0.001  -0.001   0.000   0.000
  130        0.000   0.000   0.000   0.001
  131        0.000  -0.000   0.000   0.000
  132        0.000  -0.000   0.000   0.000
  133        0.000  -0.000   0.000   0.000
  134        0.000  -0.000   0.000   0.000
  135        0.000  -0.000   0.000   0.000
  136        0.000  -0.000   0.000   0.000
  137        0.000  -0.000   0.000   0.000
  138        0.001  -0.001   0.000   0.000
  139        0.000   0.000   0.000   0.001
  140        0.000  -0.000   0.000   0.000
  141        0.001  -0.001   0.000   0.000
  142        0.000   0.000   0.000   0.001
  143        0.000  -0.000   0.000   0.000
  144        0.000  -0.000   0.000   0.000
  145        0.000  -0.000   0.000   0.000
  146        0.000  -0.000   0.000   0.000
  147        0.000  -0.000   0.000   0.000
  148        0.000  -0.000   0.000   0.000
  149        0.000  -0.000   0.000   0.000
  150        0.000  -0.001   0.000  -0.000
  151        0.000  -0.000   0.000   0.000
  152        0.000  -0.000   0.000   0.000
  153        0.000  -0.001   0.000  -0.000
  154        0.000  -0.000   0.000   0.000
  155        0.000  -0.000   0.000   0.000
  156        0.000  -0.001   0.000  -0.000
  157        0.000  -0.000   0.000   0.000
  158        0.000  -0.000   0.000   0.000
  159        0.001  -0.000   0.000   0.000
  160        0.000  -0.000   0.000   0.000
  161        0.000  -0.000   0.000   0.000
  162        0.000  -0.001   0.000  -0.000
  163        0.000  -0.000   0.000   0.000
  164        0.000  -0.000   0.000   0.000
  165        0.000  -0.000   0.000   0.000
  166        0.000  -0.000   0.000   0.000
  167        0.000  -0.000   0.000   0.000
  168        0.000  -0.001   0.000  -0.000
  169        0.000  -0.000   0.000   0.000
  170        0.000   0.000   0.000   0.000
  171        0.001   0.011   0.000   0.012
  172        0.003   0.006   0.000   0.009
  173        0.000   0.000   0.000   0.000
  174        0.001   0.011   0.000   0.012
  175        0.003   0.006   0.000   0.009
  176        0.000  -0.000   0.000   0.000
  177        0.000  -0.001   0.000  -0.000
  178        0.000  -0.000   0.000   0.000
  179        0.000  -0.000   0.000   0.000
  180        0.000  -0.000   0.000   0.000
  181        0.000  -0.000   0.000   0.000
  182        0.000  -0.000   0.000   0.000
  183        0.001  -0.000   0.000   0.000
  184        0.000  -0.000   0.000   0.000
  185        0.000   0.000   0.000   0.000
  186        0.001   0.011   0.000   0.012
  187        0.003   0.006   0.000   0.009
  188        0.000  -0.000   0.000   0.000
  189        0.001  -0.000   0.000   0.000
  190        0.000  -0.000   0.000   0.000
  191        0.036   0.012   1.380   1.428
--------------------------------------------------
tot          0.186   0.081   1.381   1.648
 

 total amount of memory used by VASP MPI-rank0   141850. kBytes
=======================================================================

   base      :      30000. kBytes
   nonlr-proj:       8600. kBytes
   fftplans  :       2267. kBytes
   grid      :       5113. kBytes
   one-center:        373. kBytes
   HF        :        129. kBytes
   wavefun   :       5829. kBytes
   fock_wrk  :      89539. kBytes
 
  
  
 General timing and accounting informations for this job:
 ========================================================
  
                  Total CPU time used (sec):    41061.891
                            User time (sec):    35575.344
                          System time (sec):     5486.547
                         Elapsed time (sec):    42139.977
  
                   Maximum memory used (kb):      795832.
                   Average memory used (kb):          N/A
  
                          Minor page faults:      5839947
                          Major page faults:         2210
                 Voluntary context switches:      2641745
