  191  191   20    2
  0.1195271E+02  0.1299435E-08  0.1299435E-08  0.1561204E-08  0.5000000E-15
  1.000000000000000E-004
  CAR 
 zno                                     
   1714      1   1056
 
  0.0000000E+00  0.0000000E+00  0.0000000E+00  0.1000000E+01
      1        -21.138239      -21.128663   1.000000   1.000000
      2        -20.885950      -20.876495   1.000000   1.000000
      3        -20.885415      -20.875963   1.000000   1.000000
      4        -20.820236      -20.819302   1.000000   1.000000
      5        -20.695782      -20.695839   1.000000   1.000000
      6        -20.659421      -20.660511   1.000000   1.000000
      7        -20.591839      -20.591568   1.000000   1.000000
      8        -20.591814      -20.591545   1.000000   1.000000
      9        -20.552598      -20.552668   1.000000   1.000000
     10        -20.532352      -20.531720   1.000000   1.000000
     11        -20.532277      -20.531643   1.000000   1.000000
     12        -20.515892      -20.515812   1.000000   1.000000
     13        -20.449710      -20.449638   1.000000   1.000000
     14        -20.449574      -20.449499   1.000000   1.000000
     15        -20.422904      -20.425978   1.000000   1.000000
     16        -20.408048      -20.408073   1.000000   1.000000
     17        -20.408012      -20.408030   1.000000   1.000000
     18        -20.400352      -20.400289   1.000000   1.000000
     19        -20.400333      -20.400276   1.000000   1.000000
     20        -20.389375      -20.389449   1.000000   1.000000
     21        -20.387859      -20.388761   1.000000   1.000000
     22        -20.387839      -20.388734   1.000000   1.000000
     23        -20.381618      -20.381708   1.000000   1.000000
     24        -20.351383      -20.351619   1.000000   1.000000
     25        -20.306933      -20.308412   1.000000   1.000000
     26        -20.288289      -20.287926   1.000000   1.000000
     27        -20.258618      -20.258855   1.000000   1.000000
     28        -20.254200      -20.254020   1.000000   1.000000
     29        -20.231805      -20.231961   1.000000   1.000000
     30        -20.231633      -20.231789   1.000000   1.000000
     31        -20.208939      -20.209039   1.000000   1.000000
     32        -20.208724      -20.208821   1.000000   1.000000
     33        -20.196407      -20.196123   1.000000   1.000000
     34        -20.196347      -20.196064   1.000000   1.000000
     35        -20.194846      -20.195018   1.000000   1.000000
     36        -20.164783      -20.164893   1.000000   1.000000
     37        -20.164760      -20.164872   1.000000   1.000000
     38        -20.158663      -20.157497   1.000000   1.000000
     39        -20.147182      -20.147511   1.000000   1.000000
     40        -20.147126      -20.147425   1.000000   1.000000
     41        -20.146852      -20.145790   1.000000   1.000000
     42        -20.146575      -20.145526   1.000000   1.000000
     43        -20.138903      -20.141397   1.000000   1.000000
     44        -20.125219      -20.125354   1.000000   1.000000
     45        -20.117616      -20.118009   1.000000   1.000000
     46        -20.117568      -20.117959   1.000000   1.000000
     47        -20.107741      -20.108438   1.000000   1.000000
     48        -20.104273      -20.104958   1.000000   1.000000
     49        -20.097186      -20.099072   1.000000   1.000000
     50        -20.095773      -20.099009   1.000000   1.000000
     51        -20.095770      -20.097124   1.000000   1.000000
     52        -20.095180      -20.095281   1.000000   1.000000
     53        -20.092557      -20.093483   1.000000   1.000000
     54        -20.092433      -20.093410   1.000000   1.000000
     55        -20.088078      -20.088266   1.000000   1.000000
     56        -20.088062      -20.088260   1.000000   1.000000
     57        -20.076887      -20.076985   1.000000   1.000000
     58        -20.069634      -20.069771   1.000000   1.000000
     59        -20.069613      -20.069749   1.000000   1.000000
     60        -20.065988      -20.066781   1.000000   1.000000
     61        -20.058286      -20.058428   1.000000   1.000000
     62        -20.058275      -20.058416   1.000000   1.000000
     63        -20.057078      -20.057263   1.000000   1.000000
     64        -20.032405      -20.033151   1.000000   1.000000
     65        -20.032277      -20.033021   1.000000   1.000000
     66        -20.029901      -20.029748   1.000000   1.000000
     67        -19.995524      -19.997545   1.000000   1.000000
     68        -19.995467      -19.995591   1.000000   1.000000
     69        -19.995437      -19.995542   1.000000   1.000000
     70        -19.984332      -19.984792   1.000000   1.000000
     71        -19.984332      -19.984759   1.000000   1.000000
     72        -19.982313      -19.982428   1.000000   1.000000
     73        -19.977252      -19.981355   1.000000   1.000000
     74        -19.977022      -19.981189   1.000000   1.000000
     75        -19.973995      -19.974124   1.000000   1.000000
     76        -19.968912      -19.969226   1.000000   1.000000
     77        -19.968788      -19.969105   1.000000   1.000000
     78        -19.963526      -19.963416   1.000000   1.000000
     79        -19.952701      -19.952885   1.000000   1.000000
     80        -19.952617      -19.952803   1.000000   1.000000
     81        -19.945866      -19.945958   1.000000   1.000000
     82        -19.944076      -19.944125   1.000000   1.000000
     83        -19.944030      -19.944079   1.000000   1.000000
     84        -19.942650      -19.942737   1.000000   1.000000
     85        -19.942596      -19.942681   1.000000   1.000000
     86        -19.937015      -19.937031   1.000000   1.000000
     87        -19.900280      -19.900663   1.000000   1.000000
     88        -19.889811      -19.891834   1.000000   1.000000
     89        -19.889774      -19.891783   1.000000   1.000000
     90        -19.878500      -19.878833   1.000000   1.000000
     91        -19.871513      -19.871655   1.000000   1.000000
     92        -19.871379      -19.871520   1.000000   1.000000
     93        -19.867862      -19.868042   1.000000   1.000000
     94        -19.867832      -19.868012   1.000000   1.000000
     95        -19.867414      -19.867495   1.000000   1.000000
     96         -8.093523       -8.090879   1.000000   1.000000
     97         -8.060121       -8.056235   1.000000   1.000000
     98         -8.060069       -8.056086   1.000000   1.000000
     99         -8.058280       -8.055080   1.000000   1.000000
    100         -8.057114       -8.054305   1.000000   1.000000
    101         -8.056862       -8.054060   1.000000   1.000000
    102         -8.041988       -8.038871   1.000000   1.000000
    103         -8.023784       -8.022836   1.000000   1.000000
    104         -8.023569       -8.022694   1.000000   1.000000
    105         -8.022803       -8.004277   1.000000   1.000000
    106         -8.022617       -8.004181   1.000000   1.000000
    107         -8.003207       -8.003596   1.000000   1.000000
    108         -7.990552       -7.989277   1.000000   1.000000
    109         -7.990442       -7.989113   1.000000   1.000000
    110         -7.983885       -7.980181   1.000000   1.000000
    111         -7.983778       -7.980086   1.000000   1.000000
    112         -7.966388       -7.963872   1.000000   1.000000
    113         -7.957800       -7.959199   1.000000   1.000000
    114         -7.957658       -7.957489   1.000000   1.000000
    115         -7.957592       -7.957317   1.000000   1.000000
    116         -7.930666       -7.929191   1.000000   1.000000
    117         -7.926510       -7.924267   1.000000   1.000000
    118         -7.926481       -7.924248   1.000000   1.000000
    119         -7.925755       -7.921450   1.000000   1.000000
    120         -7.916182       -7.916656   1.000000   1.000000
    121         -7.916137       -7.916603   1.000000   1.000000
    122         -7.897751       -7.893492   1.000000   1.000000
    123         -7.883713       -7.880712   1.000000   1.000000
    124         -7.883691       -7.880708   1.000000   1.000000
    125         -7.876703       -7.877218   1.000000   1.000000
    126         -7.875474       -7.872740   1.000000   1.000000
    127         -7.875456       -7.872727   1.000000   1.000000
    128         -7.865507       -7.863938   1.000000   1.000000
    129         -7.846003       -7.846550   1.000000   1.000000
    130         -7.845985       -7.846439   1.000000   1.000000
    131         -7.845251       -7.846415   1.000000   1.000000
    132         -7.835658       -7.833183   1.000000   1.000000
    133         -7.835528       -7.833046   1.000000   1.000000
    134         -7.831282       -7.831006   1.000000   1.000000
    135         -7.829570       -7.828608   1.000000   1.000000
    136         -7.829558       -7.828599   1.000000   1.000000
    137         -7.820449       -7.819767   1.000000   1.000000
    138         -7.814339       -7.814254   1.000000   1.000000
    139         -7.810536       -7.809705   1.000000   1.000000
    140         -7.810485       -7.809654   1.000000   1.000000
    141         -7.807743       -7.807441   1.000000   1.000000
    142         -7.805139       -7.805222   1.000000   1.000000
    143         -7.803043       -7.797827   1.000000   1.000000
    144         -7.803011       -7.797802   1.000000   1.000000
    145         -7.792205       -7.791981   1.000000   1.000000
    146         -7.792194       -7.791967   1.000000   1.000000
    147         -7.784168       -7.782525   1.000000   1.000000
    148         -7.784156       -7.782520   1.000000   1.000000
    149         -7.777855       -7.776689   1.000000   1.000000
    150         -7.775807       -7.775791   1.000000   1.000000
    151         -7.775300       -7.773772   1.000000   1.000000
    152         -7.775282       -7.773751   1.000000   1.000000
    153         -7.772436       -7.772334   1.000000   1.000000
    154         -7.767116       -7.765738   1.000000   1.000000
    155         -7.766927       -7.764187   1.000000   1.000000
    156         -7.766081       -7.764017   1.000000   1.000000
    157         -7.758863       -7.760034   1.000000   1.000000
    158         -7.746760       -7.745352   1.000000   1.000000
    159         -7.746715       -7.745316   1.000000   1.000000
    160         -7.743254       -7.743063   1.000000   1.000000
    161         -7.743245       -7.743038   1.000000   1.000000
    162         -7.742581       -7.742528   1.000000   1.000000
    163         -7.738912       -7.737444   1.000000   1.000000
    164         -7.738904       -7.737418   1.000000   1.000000
    165         -7.737443       -7.737411   1.000000   1.000000
    166         -7.732639       -7.732822   1.000000   1.000000
    167         -7.732577       -7.732760   1.000000   1.000000
    168         -7.726859       -7.726631   1.000000   1.000000
    169         -7.715943       -7.715677   1.000000   1.000000
    170         -7.715924       -7.715657   1.000000   1.000000
    171         -7.715017       -7.714478   1.000000   1.000000
    172         -7.711226       -7.710120   1.000000   1.000000
    173         -7.711077       -7.709972   1.000000   1.000000
    174         -7.703938       -7.704195   1.000000   1.000000
    175         -7.703931       -7.704194   1.000000   1.000000
    176         -7.701278       -7.701122   1.000000   1.000000
    177         -7.698237       -7.697360   1.000000   1.000000
    178         -7.698186       -7.697311   1.000000   1.000000
    179         -7.689883       -7.688530   1.000000   1.000000
    180         -7.689821       -7.688472   1.000000   1.000000
    181         -7.687636       -7.687749   1.000000   1.000000
    182         -7.678002       -7.678019   1.000000   1.000000
    183         -7.677958       -7.677273   1.000000   1.000000
    184         -7.677502       -7.677236   1.000000   1.000000
    185         -7.672738       -7.672548   1.000000   1.000000
    186         -7.672692       -7.672502   1.000000   1.000000
    187         -7.670334       -7.670067   1.000000   1.000000
    188         -7.665971       -7.666031   1.000000   1.000000
    189         -7.664159       -7.663673   1.000000   1.000000
    190         -7.664122       -7.663635   1.000000   1.000000
    191         -7.656004       -7.654018   1.000000   1.000000
    192         -7.650828       -7.649544   1.000000   1.000000
    193         -7.650824       -7.649526   1.000000   1.000000
    194         -7.647206       -7.646335   1.000000   1.000000
    195         -7.647156       -7.646157   1.000000   1.000000
    196         -7.646388       -7.646128   1.000000   1.000000
    197         -7.641381       -7.641602   1.000000   1.000000
    198         -7.637975       -7.637849   1.000000   1.000000
    199         -7.637946       -7.637820   1.000000   1.000000
    200         -7.631974       -7.631385   1.000000   1.000000
    201         -7.631905       -7.631327   1.000000   1.000000
    202         -7.631843       -7.630372   1.000000   1.000000
    203         -7.627518       -7.626551   1.000000   1.000000
    204         -7.627494       -7.626532   1.000000   1.000000
    205         -7.615092       -7.614238   1.000000   1.000000
    206         -7.614254       -7.612658   1.000000   1.000000
    207         -7.609931       -7.609681   1.000000   1.000000
    208         -7.609924       -7.609673   1.000000   1.000000
    209         -7.607594       -7.607361   1.000000   1.000000
    210         -7.607558       -7.607250   1.000000   1.000000
    211         -7.607544       -7.607230   1.000000   1.000000
    212         -7.604493       -7.604474   1.000000   1.000000
    213         -7.592603       -7.592565   1.000000   1.000000
    214         -7.592526       -7.592490   1.000000   1.000000
    215         -7.578767       -7.578410   1.000000   1.000000
    216         -7.578682       -7.578353   1.000000   1.000000
    217         -7.578438       -7.578320   1.000000   1.000000
    218         -7.575082       -7.575158   1.000000   1.000000
    219         -7.574940       -7.575006   1.000000   1.000000
    220         -7.571642       -7.572135   1.000000   1.000000
    221         -7.570751       -7.570952   1.000000   1.000000
    222         -7.570717       -7.570915   1.000000   1.000000
    223         -7.561443       -7.560021   1.000000   1.000000
    224         -7.555508       -7.555232   1.000000   1.000000
    225         -7.555429       -7.555148   1.000000   1.000000
    226         -7.554183       -7.554159   1.000000   1.000000
    227         -7.551445       -7.551308   1.000000   1.000000
    228         -7.543910       -7.543890   1.000000   1.000000
    229         -7.543798       -7.543766   1.000000   1.000000
    230         -7.541401       -7.541481   1.000000   1.000000
    231         -7.531865       -7.531500   1.000000   1.000000
    232         -7.531820       -7.531459   1.000000   1.000000
    233         -7.523828       -7.523341   1.000000   1.000000
    234         -7.523822       -7.523338   1.000000   1.000000
    235         -7.516869       -7.517831   1.000000   1.000000
    236         -7.516441       -7.516372   1.000000   1.000000
    237         -7.511180       -7.510452   1.000000   1.000000
    238         -7.511133       -7.510408   1.000000   1.000000
    239         -7.510049       -7.507664   1.000000   1.000000
    240         -7.499813       -7.499072   1.000000   1.000000
    241         -7.499738       -7.498996   1.000000   1.000000
    242         -7.489819       -7.489461   1.000000   1.000000
    243         -7.488155       -7.487712   1.000000   1.000000
    244         -7.488125       -7.487682   1.000000   1.000000
    245         -7.486342       -7.486078   1.000000   1.000000
    246         -7.482111       -7.482706   1.000000   1.000000
    247         -7.480693       -7.478845   1.000000   1.000000
    248         -7.480677       -7.478826   1.000000   1.000000
    249         -7.468136       -7.468184   1.000000   1.000000
    250         -7.467759       -7.467772   1.000000   1.000000
    251         -7.467758       -7.467770   1.000000   1.000000
    252         -7.464224       -7.464445   1.000000   1.000000
    253         -7.463349       -7.463426   1.000000   1.000000
    254         -7.463341       -7.463413   1.000000   1.000000
    255         -7.451201       -7.451122   1.000000   1.000000
    256         -7.451168       -7.451087   1.000000   1.000000
    257         -7.447732       -7.447729   1.000000   1.000000
    258         -7.447659       -7.447664   1.000000   1.000000
    259         -7.444537       -7.444454   1.000000   1.000000
    260         -7.444067       -7.443912   1.000000   1.000000
    261         -7.440607       -7.440618   1.000000   1.000000
    262         -7.438726       -7.437968   1.000000   1.000000
    263         -7.438662       -7.437898   1.000000   1.000000
    264         -7.435597       -7.435662   1.000000   1.000000
    265         -7.435506       -7.435576   1.000000   1.000000
    266         -7.428425       -7.427957   1.000000   1.000000
    267         -7.427486       -7.427446   1.000000   1.000000
    268         -7.423156       -7.423017   1.000000   1.000000
    269         -7.423024       -7.422880   1.000000   1.000000
    270         -7.410920       -7.409644   1.000000   1.000000
    271         -7.410885       -7.409590   1.000000   1.000000
    272         -7.408911       -7.408656   1.000000   1.000000
    273         -7.408175       -7.407901   1.000000   1.000000
    274         -7.408150       -7.407885   1.000000   1.000000
    275         -7.396513       -7.397606   1.000000   1.000000
    276         -7.396451       -7.395102   1.000000   1.000000
    277         -7.396219       -7.395042   1.000000   1.000000
    278         -7.394648       -7.394382   1.000000   1.000000
    279         -7.392520       -7.391751   1.000000   1.000000
    280         -7.392506       -7.391719   1.000000   1.000000
    281         -7.387579       -7.387392   1.000000   1.000000
    282         -7.387540       -7.387326   1.000000   1.000000
    283         -7.386144       -7.385698   1.000000   1.000000
    284         -7.386133       -7.385666   1.000000   1.000000
    285         -7.383626       -7.382656   1.000000   1.000000
    286         -7.379414       -7.379263   1.000000   1.000000
    287         -7.379408       -7.379262   1.000000   1.000000
    288         -7.376136       -7.376227   1.000000   1.000000
    289         -7.364839       -7.364632   1.000000   1.000000
    290         -7.363744       -7.363666   1.000000   1.000000
    291         -7.363206       -7.363055   1.000000   1.000000
    292         -7.363113       -7.362960   1.000000   1.000000
    293         -7.357297       -7.357290   1.000000   1.000000
    294         -7.345813       -7.345888   1.000000   1.000000
    295         -7.345808       -7.345887   1.000000   1.000000
    296         -7.343351       -7.344055   1.000000   1.000000
    297         -7.342316       -7.340894   1.000000   1.000000
    298         -7.342302       -7.340883   1.000000   1.000000
    299         -7.334611       -7.334628   1.000000   1.000000
    300         -7.332958       -7.332404   1.000000   1.000000
    301         -7.332953       -7.332394   1.000000   1.000000
    302         -7.323709       -7.323579   1.000000   1.000000
    303         -7.321947       -7.321659   1.000000   1.000000
    304         -7.321943       -7.321583   1.000000   1.000000
    305         -7.321686       -7.321558   1.000000   1.000000
    306         -7.314059       -7.314077   1.000000   1.000000
    307         -7.313937       -7.313955   1.000000   1.000000
    308         -7.302615       -7.302659   1.000000   1.000000
    309         -7.296960       -7.297191   1.000000   1.000000
    310         -7.295426       -7.294837   1.000000   1.000000
    311         -7.295364       -7.294780   1.000000   1.000000
    312         -7.284361       -7.284155   1.000000   1.000000
    313         -7.284277       -7.284067   1.000000   1.000000
    314         -7.263950       -7.263455   1.000000   1.000000
    315         -7.263935       -7.263195   1.000000   1.000000
    316         -7.263418       -7.263179   1.000000   1.000000
    317         -7.251377       -7.251152   1.000000   1.000000
    318         -7.251329       -7.251102   1.000000   1.000000
    319         -7.242390       -7.242765   1.000000   1.000000
    320         -7.236833       -7.236834   1.000000   1.000000
    321         -7.236812       -7.236812   1.000000   1.000000
    322         -7.233476       -7.232353   1.000000   1.000000
    323         -7.227375       -7.227472   1.000000   1.000000
    324         -7.224402       -7.224001   1.000000   1.000000
    325         -7.224126       -7.223296   1.000000   1.000000
    326         -7.224007       -7.223175   1.000000   1.000000
    327         -7.218560       -7.218128   1.000000   1.000000
    328         -7.206552       -7.205059   1.000000   1.000000
    329         -7.206525       -7.205037   1.000000   1.000000
    330         -7.204873       -7.204870   1.000000   1.000000
    331         -7.199446       -7.199443   1.000000   1.000000
    332         -7.199375       -7.199383   1.000000   1.000000
    333         -7.192666       -7.192726   1.000000   1.000000
    334         -7.192520       -7.192582   1.000000   1.000000
    335         -7.187509       -7.187968   1.000000   1.000000
    336         -7.184151       -7.183528   1.000000   1.000000
    337         -7.184097       -7.183475   1.000000   1.000000
    338         -7.172568       -7.172502   1.000000   1.000000
    339         -7.172487       -7.172421   1.000000   1.000000
    340         -7.168110       -7.168137   1.000000   1.000000
    341         -7.161797       -7.161761   1.000000   1.000000
    342         -7.161730       -7.161692   1.000000   1.000000
    343         -7.161583       -7.161558   1.000000   1.000000
    344         -7.156432       -7.156560   1.000000   1.000000
    345         -7.156321       -7.156451   1.000000   1.000000
    346         -7.147742       -7.147443   1.000000   1.000000
    347         -7.147641       -7.147344   1.000000   1.000000
    348         -7.143909       -7.143812   1.000000   1.000000
    349         -7.140119       -7.140182   1.000000   1.000000
    350         -7.124045       -7.124534   1.000000   1.000000
    351         -7.123975       -7.124468   1.000000   1.000000
    352         -7.112800       -7.113109   1.000000   1.000000
    353         -7.103482       -7.102784   1.000000   1.000000
    354         -7.103476       -7.102782   1.000000   1.000000
    355         -7.090829       -7.090450   1.000000   1.000000
    356         -7.089508       -7.089613   1.000000   1.000000
    357         -7.089367       -7.089475   1.000000   1.000000
    358         -7.081760       -7.081314   1.000000   1.000000
    359         -7.078656       -7.076994   1.000000   1.000000
    360         -7.078655       -7.076993   1.000000   1.000000
    361         -7.064335       -7.064347   1.000000   1.000000
    362         -7.052003       -7.052006   1.000000   1.000000
    363         -7.051971       -7.051972   1.000000   1.000000
    364         -7.045020       -7.045419   1.000000   1.000000
    365         -7.044925       -7.045320   1.000000   1.000000
    366         -7.035691       -7.035542   1.000000   1.000000
    367         -7.032353       -7.032461   1.000000   1.000000
    368         -7.032324       -7.032427   1.000000   1.000000
    369         -7.025157       -7.026130   1.000000   1.000000
    370         -7.015198       -7.015198   1.000000   1.000000
    371         -7.006405       -7.006156   1.000000   1.000000
    372         -7.006269       -7.005993   1.000000   1.000000
    373         -7.006174       -7.005895   1.000000   1.000000
    374         -6.996961       -6.997060   1.000000   1.000000
    375         -6.996954       -6.997054   1.000000   1.000000
    376         -6.992941       -6.994043   1.000000   1.000000
    377         -6.980112       -6.979531   1.000000   1.000000
    378         -6.979853       -6.978789   1.000000   1.000000
    379         -6.979597       -6.978516   1.000000   1.000000
    380         -6.973024       -6.973042   1.000000   1.000000
    381         -6.970806       -6.970622   1.000000   1.000000
    382         -6.970699       -6.970510   1.000000   1.000000
    383         -6.955618       -6.955189   1.000000   1.000000
    384         -6.951597       -6.951624   1.000000   1.000000
    385         -6.951564       -6.951589   1.000000   1.000000
    386         -6.947151       -6.947273   1.000000   1.000000
    387         -6.944802       -6.944821   1.000000   1.000000
    388         -6.944771       -6.944789   1.000000   1.000000
    389         -6.936306       -6.936396   1.000000   1.000000
    390         -6.922926       -6.920918   1.000000   1.000000
    391         -6.922926       -6.920916   1.000000   1.000000
    392         -6.919016       -6.919927   1.000000   1.000000
    393         -6.918559       -6.918529   1.000000   1.000000
    394         -6.918421       -6.918390   1.000000   1.000000
    395         -6.911231       -6.910812   1.000000   1.000000
    396         -6.901502       -6.901814   1.000000   1.000000
    397         -6.897050       -6.896408   1.000000   1.000000
    398         -6.897009       -6.896359   1.000000   1.000000
    399         -6.886412       -6.885902   1.000000   1.000000
    400         -6.886331       -6.885835   1.000000   1.000000
    401         -6.883843       -6.883857   1.000000   1.000000
    402         -6.878179       -6.877983   1.000000   1.000000
    403         -6.878123       -6.876877   1.000000   1.000000
    404         -6.877919       -6.876666   1.000000   1.000000
    405         -6.856021       -6.855768   1.000000   1.000000
    406         -6.855904       -6.855642   1.000000   1.000000
    407         -6.842312       -6.842271   1.000000   1.000000
    408         -6.842269       -6.842229   1.000000   1.000000
    409         -6.836072       -6.835646   1.000000   1.000000
    410         -6.835968       -6.835434   1.000000   1.000000
    411         -6.835745       -6.835278   1.000000   1.000000
    412         -6.835382       -6.834532   1.000000   1.000000
    413         -6.828845       -6.828774   1.000000   1.000000
    414         -6.828775       -6.828704   1.000000   1.000000
    415         -6.823978       -6.824358   1.000000   1.000000
    416         -6.812846       -6.812662   1.000000   1.000000
    417         -6.812736       -6.812555   1.000000   1.000000
    418         -6.806877       -6.806776   1.000000   1.000000
    419         -6.799319       -6.799328   1.000000   1.000000
    420         -6.799270       -6.799275   1.000000   1.000000
    421         -6.798837       -6.798337   1.000000   1.000000
    422         -6.785747       -6.785523   1.000000   1.000000
    423         -6.785636       -6.785410   1.000000   1.000000
    424         -6.781477       -6.781432   1.000000   1.000000
    425         -6.779784       -6.779753   1.000000   1.000000
    426         -6.776982       -6.776943   1.000000   1.000000
    427         -6.776911       -6.776870   1.000000   1.000000
    428         -6.767839       -6.767729   1.000000   1.000000
    429         -6.767812       -6.767703   1.000000   1.000000
    430         -6.763240       -6.763255   1.000000   1.000000
    431         -6.763228       -6.763240   1.000000   1.000000
    432         -6.762823       -6.762545   1.000000   1.000000
    433         -6.759983       -6.759890   1.000000   1.000000
    434         -6.751594       -6.751392   1.000000   1.000000
    435         -6.751537       -6.751344   1.000000   1.000000
    436         -6.746597       -6.746572   1.000000   1.000000
    437         -6.746567       -6.746565   1.000000   1.000000
    438         -6.743271       -6.743116   1.000000   1.000000
    439         -6.743185       -6.743030   1.000000   1.000000
    440         -6.740758       -6.740676   1.000000   1.000000
    441         -6.739936       -6.739960   1.000000   1.000000
    442         -6.736534       -6.736500   1.000000   1.000000
    443         -6.736498       -6.736472   1.000000   1.000000
    444         -6.736249       -6.736228   1.000000   1.000000
    445         -6.736125       -6.736117   1.000000   1.000000
    446         -6.731766       -6.731753   1.000000   1.000000
    447         -6.728329       -6.728319   1.000000   1.000000
    448         -6.728205       -6.728081   1.000000   1.000000
    449         -6.728058       -6.727927   1.000000   1.000000
    450         -6.725991       -6.725580   1.000000   1.000000
    451         -6.725848       -6.725441   1.000000   1.000000
    452         -6.716714       -6.716628   1.000000   1.000000
    453         -6.714722       -6.714352   1.000000   1.000000
    454         -6.714702       -6.714345   1.000000   1.000000
    455         -6.710554       -6.710424   1.000000   1.000000
    456         -6.710400       -6.710277   1.000000   1.000000
    457         -6.706945       -6.706942   1.000000   1.000000
    458         -6.694835       -6.694796   1.000000   1.000000
    459         -6.694825       -6.694787   1.000000   1.000000
    460         -6.691885       -6.691711   1.000000   1.000000
    461         -6.690032       -6.690075   1.000000   1.000000
    462         -6.689985       -6.690028   1.000000   1.000000
    463         -6.681131       -6.681127   1.000000   1.000000
    464         -6.681126       -6.681121   1.000000   1.000000