       N       E                     dE             d eps       ncg     rms          ort
SDA:   1    -0.122282676486E+04   -0.12228E+04   -0.11031E-05  1056   0.368E-05 0.000E+00
DMP:   2    -0.122282676578E+04   -0.91871E-06   -0.91977E-06  1056   0.198E-05 0.246E-05
DMP:   3    -0.122282676656E+04   -0.77464E-06   -0.65553E-06  1056   0.127E-05 0.208E-05
DMP:   4    -0.122282676713E+04   -0.57381E-06   -0.44011E-06  1056   0.757E-06 0.161E-05
   1 F= -.12228268E+04 E0= -.12228268E+04  d E =-.122283E+04  mag=     2.0000
       N       E                     dE             d eps       ncg     rms          ort
SDA:   1    -0.122281812634E+04    0.86402E-02   -0.59965E-02  1056   0.200E-01 0.000E+00
DMP:   2    -0.122282288727E+04   -0.47609E-02   -0.39191E-02  1056   0.787E-02 0.118E-01
DMP:   3    -0.122282566675E+04   -0.27795E-02   -0.14296E-02  1056   0.235E-02 0.547E-02
DMP:   4    -0.122282659326E+04   -0.92651E-03   -0.39707E-03  1056   0.700E-03 0.141E-02
DMP:   5    -0.122282680660E+04   -0.21334E-03   -0.84583E-04  1056   0.239E-03 0.981E-04
DMP:   6    -0.122282683701E+04   -0.30405E-04   -0.36220E-04  1056   0.156E-03-0.799E-04
DMP:   7    -0.122282685729E+04   -0.20279E-04   -0.33564E-04  1056   0.105E-03 0.148E-04
DMP:   8    -0.122282688133E+04   -0.24045E-04   -0.21937E-04  1056   0.513E-04 0.493E-04
DMP:   9    -0.122282689694E+04   -0.15609E-04   -0.10400E-04  1056   0.207E-04 0.316E-04
DMP:  10    -0.122282690414E+04   -0.72013E-05   -0.42230E-05  1056   0.812E-05 0.135E-04
DMP:  11    -0.122282690698E+04   -0.28369E-05   -0.16173E-05  1056   0.330E-05 0.474E-05
DMP:  12    -0.122282690804E+04   -0.10660E-05   -0.68307E-06  1056   0.156E-05 0.163E-05
DMP:  13    -0.122282690851E+04   -0.46573E-06   -0.35823E-06  1056   0.837E-06 0.808E-06
   2 F= -.12228269E+04 E0= -.12228269E+04  d E =-.141379E-03  mag=     2.0000
       N       E                     dE             d eps       ncg     rms          ort
SDA:   1    -0.122282675428E+04    0.15376E-03   -0.10165E-03  1056   0.339E-03 0.000E+00
DMP:   2    -0.122282683592E+04   -0.81639E-04   -0.67777E-04  1056   0.135E-03 0.205E-03
DMP:   3    -0.122282688494E+04   -0.49021E-04   -0.26551E-04  1056   0.441E-04 0.101E-03
DMP:   4    -0.122282690276E+04   -0.17813E-04   -0.81578E-05  1056   0.139E-04 0.300E-04
DMP:   5    -0.122282690745E+04   -0.46904E-05   -0.18283E-05  1056   0.431E-05 0.404E-05
DMP:   6    -0.122282690819E+04   -0.74263E-06   -0.59087E-06  1056   0.245E-05-0.109E-05
   3 F= -.12228269E+04 E0= -.12228269E+04  d E =-.141061E-03  mag=     2.0000
       N       E                     dE             d eps       ncg     rms          ort
SDA:   1    -0.122282661604E+04    0.29141E-03   -0.18789E-03  1056   0.626E-03 0.000E+00
DMP:   2    -0.122282676595E+04   -0.14991E-03   -0.12240E-03  1056   0.243E-03 0.373E-03
DMP:   3    -0.122282685388E+04   -0.87935E-04   -0.47940E-04  1056   0.813E-04 0.178E-03
DMP:   4    -0.122282688619E+04   -0.32313E-04   -0.15520E-04  1056   0.273E-04 0.553E-04
DMP:   5    -0.122282689529E+04   -0.91016E-05   -0.36120E-05  1056   0.810E-05 0.892E-05
DMP:   6    -0.122282689681E+04   -0.15169E-05   -0.10652E-05  1056   0.436E-05-0.184E-05
DMP:   7    -0.122282689732E+04   -0.50620E-06   -0.86602E-06  1056   0.298E-05-0.206E-06
   4 F= -.12228269E+04 E0= -.12228269E+04  d E =-.130188E-03  mag=     2.0000
       N       E                     dE             d eps       ncg     rms          ort
SDA:   1    -0.122282677298E+04    0.12383E-03   -0.76598E-04  1056   0.255E-03 0.000E+00
DMP:   2    -0.122282683390E+04   -0.60927E-04   -0.49310E-04  1056   0.978E-04 0.151E-03
DMP:   3    -0.122282686905E+04   -0.35144E-04   -0.18812E-04  1056   0.320E-04 0.696E-04
DMP:   4    -0.122282688161E+04   -0.12556E-04   -0.60905E-05  1056   0.111E-04 0.208E-04
DMP:   5    -0.122282688518E+04   -0.35738E-05   -0.15161E-05  1056   0.351E-05 0.349E-05
DMP:   6    -0.122282688584E+04   -0.66418E-06   -0.46841E-06  1056   0.182E-05-0.579E-06
   5 F= -.12228269E+04 E0= -.12228269E+04  d E =-.118713E-03  mag=     2.0000
