 vasp.6.4.2 20Jul23 (build Oct 07 2023 16:32:06) gamma-only                     
  
 executed on             bridges2 date 2023.12.02  09:23:03
 running  768 mpi-ranks, on    6 nodes
 distrk:  each k-point on  384 cores,    2 groups
 distr:  one band on NCORE=   8 cores,   48 groups


--------------------------------------------------------------------------------------------------------


 INCAR:
   SYSTEM = zno
   PREC = Normal
   ISTART = 1
   ICHARG = 0
   ISPIN = 2
   MAGMOM = 76*0.0 1*1.0 2*0.0 1*1.0 11*0.0 1*1.0 78*0.0 1*1.0 2*0.0 1*1.0 11*0.0 1*1.0 4*0.0 1*1.4
   NCORE = 8
   KPAR = 2
   NELECT = 1714
   ENCUT = 400
   NELM = 1500
   NELMIN = 4
   EDIFF = 1E-06
   LREAL = Auto
   EDIFFG = -1E-02
   NSW = 20
   IBRION = 2
   ISIF = 2
   ISYM = 3
   POTIM = 0.5
   ISMEAR = 0
   SIGMA = 0.005
   LWAVE = T
   LCHARG = T
   LVHAR = T
   LVTOT = F
   LELF = F
   LORBIT = 11
   ALGO = Damped
   TIME = 0.3
   LHFCALC = T
   HFSCREEN = 0.2
   AEXX = 0.375
   GGA = PE

 POTCAR:    PAW_PBE Zn 06Sep2000                  
 POTCAR:    PAW_PBE O 08Apr2002                   
 POTCAR:    PAW_PBE V 08Apr2002                   
 -----------------------------------------------------------------------------
|                                                                             |
|           W    W    AA    RRRRR   N    N  II  N    N   GGGG   !!!           |
|           W    W   A  A   R    R  NN   N  II  NN   N  G    G  !!!           |
|           W    W  A    A  R    R  N N  N  II  N N  N  G       !!!           |
|           W WW W  AAAAAA  RRRRR   N  N N  II  N  N N  G  GGG   !            |
|           WW  WW  A    A  R   R   N   NN  II  N   NN  G    G                |
|           W    W  A    A  R    R  N    N  II  N    N   GGGG   !!!           |
|                                                                             |
|     For optimal performance we recommend to set                             |
|       NCORE = 2 up to number-of-cores-per-socket                            |
|     NCORE specifies how many cores store one orbital (NPAR=cpu/NCORE).      |
|     This setting can greatly improve the performance of VASP for DFT.       |
|     The default, NCORE=1 might be grossly inefficient on modern             |
|     multi-core architectures or massively parallel machines. Do your        |
|     own testing! More info at https://www.vasp.at/wiki/index.php/NCORE      |
|     Unfortunately you need to use the default for GW and RPA                |
|     calculations (for HF NCORE is supported but not extensively tested      |
|     yet).                                                                   |
|                                                                             |
 -----------------------------------------------------------------------------

 POTCAR:    PAW_PBE Zn 06Sep2000                  
   SHA256 =  501fddbd8274dd8e9725d4f3de27861d7f1e553a7e18441bc79fed8f346e7f23 Zn/POTCAR             
   COPYR  = (c) Copyright 06Sep2000 Georg Kresse                                                    
   COPYR  = This file is part of the software VASP. Any use, copying, and all other rights are regul
   COPYR  = If you do not have a valid VASP license, you may not use, copy or distribute this file. 
   VRHFIN =Zn: d10 p2                                                                               
   LEXCH  = PE                                                                                      
   EATOM  =  1748.8345 eV,  128.5357 Ry                                                             
                                                                                                    
   TITEL  = PAW_PBE Zn 06Sep2000                                                                    
   LULTRA =        F    use ultrasoft PP ?                                                          
   IUNSCR =        1    unscreen: 0-lin 1-nonlin 2-no                                               
   RPACOR =    2.000    partial core radius                                                         
   POMASS =   65.390; ZVAL   =   12.000    mass and valenz                                          
   RCORE  =    2.300    outmost cutoff radius                                                       
   RWIGS  =    2.400; RWIGS  =    1.270    wigner-seitz radius (au A)                               
   ENMAX  =  276.723; ENMIN  =  207.542 eV                                                          
   RCLOC  =    1.828    cutoff for local pot                                                        
   LCOR   =        T    correct aug charges                                                         
   LPAW   =        T    paw PP                                                                      
   EAUG   =  575.892                                                                                
   DEXC   =    0.000                                                                                
   RMAX   =    2.347    core radius for proj-oper                                                   
   RAUG   =    1.300    factor for augmentation sphere                                              
   RDEP   =    2.324    radius for radial grids                                                     
   RDEPT  =    1.788    core radius for aug-charge                                                  
                                                                                                    
   Atomic configuration                                                                             
    9 entries                                                                                       
     n  l   j            E        occ.                                                              
     1  0  0.50     -9524.6913   2.0000                                                             
     2  0  0.50     -1158.1882   2.0000                                                             
     2  1  1.50     -1003.8506   6.0000                                                             
     3  0  0.50      -129.2194   2.0000                                                             
     3  1  1.50       -83.3890   6.0000                                                             
     3  2  2.50       -10.1410  10.0000                                                             
     4  0  0.50        -5.9785   2.0000                                                             
     4  1  0.50        -4.0817   0.0000                                                             
     4  3  2.50        -1.3606   0.0000                                                             
   Description                                                                                      
     l       E           TYP  RCUT    TYP  RCUT                                                     
     2    -10.1410010     23  2.300                                                                 
     2    -11.5015836     23  2.300                                                                 
     0     -5.9785163     23  2.300                                                                 
     0      1.1858015     23  2.300                                                                 
     1     -2.7211652     23  2.300                                                                 
     1     13.2444212     23  2.300                                                                 
  local pseudopotential read in
  partial core-charges read in
  partial kinetic energy density read in
  atomic valenz-charges read in
  non local Contribution for L=           2  read in
    real space projection operators read in
  non local Contribution for L=           2  read in
    real space projection operators read in
  non local Contribution for L=           0  read in
    real space projection operators read in
  non local Contribution for L=           0  read in
    real space projection operators read in
  non local Contribution for L=           1  read in
    real space projection operators read in
  non local Contribution for L=           1  read in
    real space projection operators read in
    PAW grid and wavefunctions read in
 
   number of l-projection  operators is LMAX  =           6
   number of lm-projection operators is LMMAX =          18
 
 POTCAR:    PAW_PBE O 08Apr2002                   
   SHA256 =  818f92134a0a090dccd8ba1447fa70422a3b330e708bb4f08108d8ae51209ddf O/POTCAR              
   COPYR  = (c) Copyright 08Apr2002 Georg Kresse                                                    
   COPYR  = This file is part of the software VASP. Any use, copying, and all other rights are regul
   COPYR  = If you do not have a valid VASP license, you may not use, copy or distribute this file. 
   VRHFIN =O: s2p4                                                                                  
   LEXCH  = PE                                                                                      
   EATOM  =   432.3788 eV,   31.7789 Ry                                                             
                                                                                                    
   TITEL  = PAW_PBE O 08Apr2002                                                                     
   LULTRA =        F    use ultrasoft PP ?                                                          
   IUNSCR =        1    unscreen: 0-lin 1-nonlin 2-no                                               
   RPACOR =    1.200    partial core radius                                                         
   POMASS =   16.000; ZVAL   =    6.000    mass and valenz                                          
   RCORE  =    1.520    outmost cutoff radius                                                       
   RWIGS  =    1.550; RWIGS  =    0.820    wigner-seitz radius (au A)                               
   ENMAX  =  400.000; ENMIN  =  300.000 eV                                                          
   ICORE  =        2    local potential                                                             
   LCOR   =        T    correct aug charges                                                         
   LPAW   =        T    paw PP                                                                      
   EAUG   =  605.392                                                                                
   DEXC   =    0.000                                                                                
   RMAX   =    1.553    core radius for proj-oper                                                   
   RAUG   =    1.300    factor for augmentation sphere                                              
   RDEP   =    1.550    radius for radial grids                                                     
   RDEPT  =    1.329    core radius for aug-charge                                                  
                                                                                                    
   Atomic configuration                                                                             
    4 entries                                                                                       
     n  l   j            E        occ.                                                              
     1  0  0.50      -514.6923   2.0000                                                             
     2  0  0.50       -23.9615   2.0000                                                             
     2  1  0.50        -9.0305   4.0000                                                             
     3  2  1.50        -9.5241   0.0000                                                             
   Description                                                                                      
     l       E           TYP  RCUT    TYP  RCUT                                                     
     0    -23.9615318     23  1.200                                                                 
     0     -9.5240782     23  1.200                                                                 
     1     -9.0304911     23  1.520                                                                 
     1      8.1634956     23  1.520                                                                 
     2     -9.5240782      7  1.500                                                                 
  local pseudopotential read in
  partial core-charges read in
  partial kinetic energy density read in
  kinetic energy density of atom read in
  atomic valenz-charges read in
  non local Contribution for L=           0  read in
    real space projection operators read in
  non local Contribution for L=           0  read in
    real space projection operators read in
  non local Contribution for L=           1  read in
    real space projection operators read in
  non local Contribution for L=           1  read in
    real space projection operators read in
    PAW grid and wavefunctions read in
 
   number of l-projection  operators is LMAX  =           4
   number of lm-projection operators is LMMAX =           8
 
 POTCAR:    PAW_PBE V 08Apr2002                   
   SHA256 =  ef546ef2c242197bded3fc1a147275a02051e3e940c74ac2c3352ea17412f79c V/POTCAR              
   COPYR  = (c) Copyright 08Apr2002 Georg Kresse                                                    
   COPYR  = This file is part of the software VASP. Any use, copying, and all other rights are regul
   COPYR  = If you do not have a valid VASP license, you may not use, copy or distribute this file. 
   VRHFIN =V: p6 d4 s1                                                                              
   LEXCH  = PE                                                                                      
   EATOM  =   170.8679 eV,   12.5584 Ry                                                             
                                                                                                    
   TITEL  = PAW_PBE V 08Apr2002                                                                     
   LULTRA =        F    use ultrasoft PP ?                                                          
   IUNSCR =        1    unscreen: 0-lin 1-nonlin 2-no                                               
   RPACOR =    2.000    partial core radius                                                         
   POMASS =   50.941; ZVAL   =    5.000    mass and valenz                                          
   RCORE  =    2.700    outmost cutoff radius                                                       
   RWIGS  =    2.500; RWIGS  =    1.323    wigner-seitz radius (au A)                               
   ENMAX  =  192.543; ENMIN  =  144.408 eV                                                          
   RCLOC  =    1.779    cutoff for local pot                                                        
   LCOR   =        T    correct aug charges                                                         
   LPAW   =        T    paw PP                                                                      
   EAUG   =  358.662                                                                                
   DEXC   =    0.000                                                                                
   RMAX   =    2.768    core radius for proj-oper                                                   
   RAUG   =    1.300    factor for augmentation sphere                                              
   RDEP   =    2.762    radius for radial grids                                                     
   RDEPT  =    2.240    core radius for aug-charge                                                  
                                                                                                    
   Atomic configuration                                                                             
    9 entries                                                                                       
     n  l   j            E        occ.                                                              
     1  0  0.50     -5360.7193   2.0000                                                             
     2  0  0.50      -598.4546   2.0000                                                             
     2  1  1.50      -499.0155   6.0000                                                             
     3  0  0.50       -66.5711   2.0000                                                             
     3  1  1.50       -40.5282   6.0000                                                             
     3  2  2.50        -2.4291   4.0000                                                             
     4  0  0.50        -3.8743   1.0000                                                             
     4  1  0.50        -2.7212   0.0000                                                             
     4  3  2.50        -1.3606   0.0000                                                             
   Description                                                                                      
     l       E           TYP  RCUT    TYP  RCUT                                                     
     2     -2.4290901     23  2.700                                                                 
     2     -3.7896727     23  2.700                                                                 
     0     -3.8742752     23  2.700                                                                 
     0     27.2116520     23  2.700                                                                 
     1     -2.7211652     23  2.700                                                                 
     1     27.2116520     23  2.700                                                                 
  local pseudopotential read in
  partial core-charges read in
  partial kinetic energy density read in
  atomic valenz-charges read in
  non local Contribution for L=           2  read in
    real space projection operators read in
  non local Contribution for L=           2  read in
    real space projection operators read in
  non local Contribution for L=           0  read in
    real space projection operators read in
  non local Contribution for L=           0  read in
    real space projection operators read in
  non local Contribution for L=           1  read in
    real space projection operators read in
  non local Contribution for L=           1  read in
    real space projection operators read in
    PAW grid and wavefunctions read in
 
   number of l-projection  operators is LMAX  =           6
   number of lm-projection operators is LMMAX =          18
 
 Optimization of the real space projectors (new method)

 maximal supplied QI-value         = 16.25
 optimisation between [QCUT,QGAM] = [ 10.24, 20.48] = [ 29.35,117.42] Ry 
 Optimized for a Real-space Cutoff    1.38 Angstroem

   l    n(q)    QCUT    max X(q) W(low)/X(q) W(high)/X(q)  e(spline) 
   2      7    10.239    46.356    0.21E-03    0.48E-03    0.10E-06
   2      7    10.239    41.843    0.21E-03    0.50E-03    0.10E-06
   0      8    10.239    48.958    0.37E-03    0.79E-04    0.11E-06
   0      8    10.239    32.776    0.35E-03    0.73E-04    0.10E-06
   1      8    10.239    17.787    0.49E-03    0.70E-03    0.14E-06
   1      8    10.239    14.435    0.42E-03    0.61E-03    0.13E-06
 Optimization of the real space projectors (new method)

 maximal supplied QI-value         = 24.76
 optimisation between [QCUT,QGAM] = [ 10.15, 20.30] = [ 28.85,115.39] Ry 
 Optimized for a Real-space Cutoff    1.38 Angstroem

   l    n(q)    QCUT    max X(q) W(low)/X(q) W(high)/X(q)  e(spline) 
   0      8    10.150    20.381    0.22E-03    0.32E-03    0.29E-06
   0      8    10.150    15.268    0.23E-03    0.35E-03    0.30E-06
   1      8    10.150     5.964    0.46E-03    0.53E-03    0.21E-06
   1      8    10.150     5.382    0.38E-03    0.45E-03    0.19E-06
 Optimization of the real space projectors (new method)

 maximal supplied QI-value         = 13.98
 optimisation between [QCUT,QGAM] = [ 10.21, 20.42] = [ 29.18,116.73] Ry 
 Optimized for a Real-space Cutoff    1.60 Angstroem

   l    n(q)    QCUT    max X(q) W(low)/X(q) W(high)/X(q)  e(spline) 
   2      9    10.208    96.114    0.38E-03    0.52E-03    0.25E-06
   2      9    10.208    88.986    0.38E-03    0.52E-03    0.26E-06
   0     10    10.208    20.919    0.14E-03    0.29E-04    0.23E-06
   0     10    10.208     9.593    0.11E-03    0.21E-04    0.17E-06
   1      9    10.208    11.615    0.18E-03    0.30E-03    0.12E-06
   1      9    10.208     7.031    0.12E-03    0.21E-03    0.96E-07
  PAW_PBE Zn 06Sep2000                  :
 energy of atom  1       EATOM=-1748.8345
 kinetic energy error for atom=    0.0107 (will be added to EATOM!!)
  PAW_PBE O 08Apr2002                   :
 energy of atom  2       EATOM= -432.3788
 kinetic energy error for atom=    0.1156 (will be added to EATOM!!)
  PAW_PBE V 08Apr2002                   :
 energy of atom  3       EATOM= -170.8679
 kinetic energy error for atom=    0.0010 (will be added to EATOM!!)
 
 
 POSCAR: Zn2 O2
  positions in direct lattice
  velocities in cartesian coordinates
 exchange correlation table for  LEXCH =        8
   RHO(1)=    0.500       N(1)  =     2000
   RHO(2)=  100.500       N(2)  =     4000
 


--------------------------------------------------------------------------------------------------------


 ion  position               nearest neighbor table
   1  0.167  0.083  0.166- 143 1.97 152 1.97 155 1.97  96 1.99
   2  0.167  0.083  0.500- 144 1.97  97 1.98 153 1.98 156 1.98
   3  0.167  0.083  0.833- 145 1.98 154 1.98 157 1.98  98 1.98
   4  0.166  0.333  0.166- 143 1.97 146 1.97 158 1.98  99 1.99
   5  0.166  0.333  0.500- 144 1.97 147 1.97 100 1.98 159 1.99
   6  0.167  0.333  0.834- 145 1.98 148 1.98 160 1.98 101 1.98
   7  0.167  0.583  0.166- 146 1.97 161 1.97 149 1.97 102 1.99
   8  0.167  0.583  0.500- 147 1.97 103 1.98 162 1.98 150 1.98
   9  0.167  0.583  0.833- 148 1.98 163 1.98 151 1.98 104 1.98
  10  0.167  0.833  0.166- 164 1.97 149 1.97 152 1.97 105 1.99
  11  0.167  0.834  0.500- 165 1.97 106 1.98 150 1.98 153 1.98
  12  0.167  0.833  0.834- 166 1.98 151 1.98 154 1.98 107 1.98
  13  0.417  0.083  0.166- 164 1.97 167 1.97 155 1.97 108 1.99
  14  0.416  0.083  0.500- 165 1.97 109 1.98 168 1.98 156 1.98
  15  0.417  0.083  0.834- 166 1.98 169 1.98 157 1.98 110 1.98
  16  0.416  0.333  0.167- 155 1.97 158 1.97 170 1.98 111 2.00
  17  0.413  0.331  0.502- 156 1.95 159 1.96 112 1.97 171 2.05
  18  0.418  0.334  0.833- 157 1.97 160 1.98 172 1.98 113 1.99
  19  0.416  0.583  0.167- 161 1.97 158 1.97 173 1.98 114 2.00
  20  0.413  0.582  0.502- 162 1.95 159 1.96 115 1.97 174 2.04
  21  0.418  0.584  0.833- 163 1.98 160 1.98 175 1.98 116 1.99
  22  0.417  0.833  0.166- 164 1.97 161 1.97 176 1.97 117 1.99
  23  0.416  0.834  0.500- 165 1.97 118 1.98 162 1.98 177 1.98
  24  0.417  0.833  0.834- 166 1.98 163 1.98 178 1.98 119 1.98
  25  0.667  0.083  0.166- 179 1.97 176 1.97 167 1.97 120 1.99
  26  0.667  0.083  0.500- 180 1.97 121 1.98 177 1.98 168 1.98
  27  0.667  0.083  0.833- 181 1.98 178 1.98 169 1.98 122 1.98
  28  0.667  0.333  0.167- 167 1.97 182 1.97 170 1.98 123 2.00
  29  0.668  0.331  0.502- 168 1.95 183 1.96 124 1.97 171 2.05
  30  0.666  0.334  0.833- 169 1.97 184 1.98 172 1.98 125 1.99
  31  0.667  0.583  0.167- 170 1.97 185 1.97 173 1.97 126 2.02
  32  0.667  0.583  0.835- 127 1.97 172 1.98 187 1.98 175 1.98
  33  0.667  0.834  0.167- 176 1.97 188 1.97 173 1.98 128 2.00
  34  0.668  0.837  0.502- 177 1.95 189 1.96 129 1.97 174 2.04
  35  0.666  0.832  0.833- 178 1.98 190 1.98 175 1.98 130 1.99
  36  0.917  0.084  0.166- 143 1.97 179 1.97 188 1.98 131 1.99
  37  0.917  0.084  0.500- 144 1.97 180 1.97 132 1.98 189 1.99
  38  0.917  0.083  0.834- 145 1.98 181 1.98 190 1.98 133 1.98
  39  0.917  0.333  0.166- 179 1.97 146 1.97 182 1.98 134 1.99
  40  0.917  0.333  0.500- 180 1.97 147 1.97 135 1.98 183 1.99
  41  0.917  0.333  0.834- 181 1.98 148 1.98 184 1.98 136 1.98
  42  0.917  0.583  0.167- 149 1.97 182 1.97 185 1.98 137 2.00
  43  0.919  0.582  0.502- 150 1.95 183 1.96 138 1.97 186 2.05
  44  0.916  0.584  0.833- 151 1.97 184 1.98 187 1.98 139 1.99
  45  0.917  0.834  0.167- 152 1.97 188 1.97 185 1.98 140 2.00
  46  0.919  0.837  0.502- 153 1.95 189 1.96 141 1.97 186 2.05
  47  0.916  0.832  0.833- 154 1.97 190 1.98 187 1.98 142 1.99
  48  0.083  0.167  0.000- 101 1.97 133 1.97  98 1.97 143 1.99
  49  0.083  0.167  0.333-  99 1.97 131 1.97  96 1.97 144 1.99
  50  0.083  0.167  0.667- 145 1.98  97 1.98 100 1.98 132 1.98
  51  0.083  0.417  0.000- 136 1.97 104 1.97 101 1.97 146 1.99
  52  0.083  0.417  0.333- 134 1.97  99 1.97 102 1.97 147 1.99
  53  0.083  0.417  0.667- 148 1.98 103 1.98 135 1.98 100 1.98
  54  0.083  0.667  1.000- 107 1.97 104 1.97 139 1.98 149 1.99
  55  0.084  0.667  0.333- 102 1.97 105 1.97 137 1.98 150 1.99
  56  0.082  0.667  0.667- 106 1.98 151 1.98 103 1.99 138 2.00
  57  0.083  0.917  1.000- 107 1.97  98 1.97 142 1.98 152 1.99
  58  0.084  0.917  0.333-  96 1.97 105 1.97 140 1.98 153 1.99
  59  0.082  0.915  0.667- 154 1.98 106 1.98  97 1.99 141 2.00
  60  0.333  0.167  1.000- 110 1.97  98 1.97 113 1.98 155 1.99
  61  0.333  0.166  0.333-  96 1.97 108 1.97 111 1.98 156 1.99
  62  0.335  0.168  0.667- 157 1.98 109 1.98  97 1.99 112 2.00
  63  0.333  0.417  1.000- 101 1.97 116 1.98 113 1.98 158 1.99
  64  0.332  0.416  0.333-  99 1.96 114 1.97 111 1.97 159 1.99
  65  0.334  0.417  0.668- 160 1.97 100 1.98 112 1.99 115 1.99
  66  0.333  0.667  1.000- 119 1.97 104 1.97 116 1.98 161 1.99
  67  0.333  0.667  0.333- 102 1.97 117 1.97 114 1.98 162 1.99
  68  0.335  0.667  0.667- 118 1.98 163 1.98 103 1.99 115 2.00
  69  0.333  0.917  0.000- 110 1.97 107 1.97 119 1.97 164 1.99
  70  0.333  0.917  0.333- 108 1.97 105 1.97 117 1.97 165 1.99
  71  0.333  0.917  0.667- 166 1.98 109 1.98 106 1.98 118 1.98
  72  0.583  0.167  1.000- 110 1.97 122 1.97 125 1.98 167 1.99
  73  0.583  0.166  0.333- 120 1.97 108 1.97 123 1.98 168 1.99
  74  0.583  0.168  0.667- 109 1.98 169 1.98 121 1.99 124 2.00
  75  0.583  0.416  0.001- 113 1.97 125 1.97 127 1.98 170 1.99
  76  0.582  0.415  0.331- 111 1.95 123 1.95 126 1.97 171 2.07
  77  0.590  0.429  0.664- 172 1.98 112 1.99 124 1.99  92 3.00  80 3.01
  78  0.583  0.667  0.001- 130 1.97 116 1.97 127 1.98 173 1.99
  79  0.582  0.668  0.331- 128 1.95 114 1.95 126 1.97 174 2.07
  80  0.590  0.660  0.664- 175 1.98 129 1.99 115 1.99  77 3.01  92 3.01
  81  0.583  0.917  1.000- 119 1.97 122 1.97 130 1.98 176 1.99
  82  0.583  0.917  0.333- 120 1.97 117 1.97 128 1.98 177 1.99
  83  0.583  0.915  0.667- 118 1.98 178 1.98 121 1.99 129 2.00
  84  0.833  0.167  0.000- 136 1.97 122 1.97 133 1.97 179 1.99
  85  0.833  0.167  0.333- 134 1.97 131 1.97 120 1.97 180 1.99
  86  0.833  0.167  0.667- 181 1.98 121 1.98 135 1.98 132 1.98
  87  0.833  0.417  1.000- 136 1.97 139 1.98 125 1.98 182 1.99
  88  0.834  0.416  0.333- 134 1.96 137 1.97 123 1.97 183 1.99
  89  0.833  0.417  0.668- 184 1.97 135 1.98 138 1.99 124 1.99
  90  0.834  0.667  0.001- 142 1.97 139 1.97 127 1.98 185 1.99
  91  0.835  0.668  0.331- 140 1.95 137 1.95 126 1.97 186 2.07
  92  0.821  0.660  0.664- 187 1.98 141 1.99 138 1.99  77 3.00  80 3.01
  93  0.833  0.917  1.000- 133 1.97 130 1.98 142 1.98 188 1.99
  94  0.834  0.918  0.333- 131 1.96 128 1.97 140 1.97 189 1.99
  95  0.833  0.916  0.668- 190 1.97 132 1.98 141 1.99 129 1.99
  96  0.167  0.083  0.294-  58 1.97  61 1.97  49 1.97   1 1.99
  97  0.167  0.083  0.627-  50 1.98   2 1.98  59 1.99  62 1.99
  98  0.167  0.083  0.960-  57 1.97  60 1.97  48 1.97   3 1.98
  99  0.167  0.333  0.294-  64 1.96  49 1.97  52 1.97   4 1.99
 100  0.168  0.334  0.627-  65 1.98   5 1.98  50 1.98  53 1.98
 101  0.167  0.333  0.961-  63 1.97  48 1.97  51 1.97   6 1.98
 102  0.167  0.583  0.294-  67 1.97  55 1.97  52 1.97   7 1.99
 103  0.167  0.584  0.627-  53 1.98   8 1.98  68 1.99  56 1.99
 104  0.167  0.583  0.960-  66 1.97  54 1.97  51 1.97   9 1.98
 105  0.167  0.833  0.294-  55 1.97  58 1.97  70 1.97  10 1.99
 106  0.166  0.833  0.627-  56 1.98  59 1.98  11 1.98  71 1.98
 107  0.167  0.833  0.961-  57 1.97  54 1.97  69 1.97  12 1.98
 108  0.417  0.083  0.294-  73 1.97  61 1.97  70 1.97  13 1.99
 109  0.417  0.084  0.627-  74 1.98  62 1.98  14 1.98  71 1.98
 110  0.417  0.083  0.961-  60 1.97  72 1.97  69 1.97  15 1.98
 111  0.417  0.333  0.295-  76 1.95  64 1.97  61 1.98  16 2.00
 112  0.421  0.336  0.627-  17 1.97  65 1.99  77 1.99  62 2.00
 113  0.417  0.334  0.960-  75 1.97  63 1.98  60 1.98  18 1.99
 114  0.417  0.583  0.295-  79 1.95  64 1.97  67 1.98  19 2.00
 115  0.421  0.584  0.627-  20 1.97  65 1.99  80 1.99  68 2.00
 116  0.417  0.584  0.960-  78 1.97  63 1.98  66 1.98  21 1.99
 117  0.417  0.833  0.294-  67 1.97  82 1.97  70 1.97  22 1.99
 118  0.417  0.833  0.627-  68 1.98  83 1.98  23 1.98  71 1.98
 119  0.417  0.833  0.961-  66 1.97  81 1.97  69 1.97  24 1.98
 120  0.667  0.083  0.294-  82 1.97  73 1.97  85 1.97  25 1.99
 121  0.666  0.083  0.627-  86 1.98  26 1.98  83 1.99  74 1.99
 122  0.667  0.083  0.960-  81 1.97  72 1.97  84 1.97  27 1.98
 123  0.667  0.333  0.295-  76 1.95  88 1.97  73 1.98  28 2.00
 124  0.666  0.336  0.627-  29 1.97  89 1.99  77 1.99  74 2.00
 125  0.666  0.334  0.960-  75 1.97  87 1.98  72 1.98  30 1.99
 126  0.667  0.583  0.297-  76 1.97  91 1.97  79 1.97  31 2.02
 127  0.667  0.583  0.961-  32 1.97  75 1.98  90 1.98  78 1.98
 128  0.667  0.833  0.295-  79 1.95  94 1.97  82 1.98  33 2.00
 129  0.666  0.829  0.627-  34 1.97  95 1.99  80 1.99  83 2.00
 130  0.666  0.833  0.960-  78 1.97  93 1.98  81 1.98  35 1.99
 131  0.917  0.083  0.294-  94 1.96  49 1.97  85 1.97  36 1.99
 132  0.916  0.082  0.627-  95 1.98  37 1.98  50 1.98  86 1.98
 133  0.917  0.083  0.961-  93 1.97  48 1.97  84 1.97  38 1.98
 134  0.917  0.333  0.294-  88 1.96  85 1.97  52 1.97  39 1.99
 135  0.916  0.334  0.627-  89 1.98  40 1.98  86 1.98  53 1.98
 136  0.917  0.333  0.961-  87 1.97  84 1.97  51 1.97  41 1.98
 137  0.917  0.583  0.295-  91 1.95  88 1.97  55 1.98  42 2.00
 138  0.914  0.584  0.627-  43 1.97  89 1.99  92 1.99  56 2.00
 139  0.916  0.584  0.960-  90 1.97  87 1.98  54 1.98  44 1.99
 140  0.917  0.833  0.295-  91 1.95  94 1.97  58 1.98  45 2.00
 141  0.914  0.829  0.627-  46 1.97  95 1.99  92 1.99  59 2.00
 142  0.916  0.833  0.960-  90 1.97  93 1.98  57 1.98  47 1.99
 143  0.083  0.167  0.127-   1 1.97   4 1.97  36 1.97  48 1.99
 144  0.083  0.167  0.460-   2 1.97   5 1.97  37 1.97  49 1.99
 145  0.083  0.167  0.794-   6 1.98  38 1.98   3 1.98  50 1.98
 146  0.083  0.417  0.127-   7 1.97  39 1.97   4 1.97  51 1.99
 147  0.084  0.417  0.460-   8 1.97   5 1.97  40 1.97  52 1.99
 148  0.083  0.417  0.794-   9 1.98  41 1.98   6 1.98  53 1.98
 149  0.083  0.667  0.127-  42 1.97   7 1.97  10 1.97  54 1.99
 150  0.083  0.667  0.460-  43 1.95  11 1.98   8 1.98  55 1.99
 151  0.083  0.667  0.794-  44 1.97  56 1.98  12 1.98   9 1.98
 152  0.083  0.917  0.127-  45 1.97   1 1.97  10 1.97  57 1.99
 153  0.083  0.916  0.460-  46 1.95  11 1.98   2 1.98  58 1.99
 154  0.083  0.916  0.794-  47 1.97  59 1.98  12 1.98   3 1.98
 155  0.333  0.167  0.127-  16 1.97   1 1.97  13 1.97  60 1.99
 156  0.334  0.167  0.460-  17 1.95  14 1.98   2 1.98  61 1.99
 157  0.334  0.167  0.794-  18 1.97  62 1.98  15 1.98   3 1.98
 158  0.333  0.417  0.127-  19 1.97  16 1.97   4 1.98  63 1.99
 159  0.334  0.417  0.461-  20 1.96  17 1.96  64 1.99   5 1.99
 160  0.334  0.417  0.794-  65 1.97  21 1.98  18 1.98   6 1.98
 161  0.333  0.667  0.127-  19 1.97   7 1.97  22 1.97  66 1.99
 162  0.334  0.667  0.460-  20 1.95  23 1.98   8 1.98  67 1.99
 163  0.334  0.667  0.794-  21 1.98  68 1.98  24 1.98   9 1.98
 164  0.333  0.917  0.127-  13 1.97  10 1.97  22 1.97  69 1.99
 165  0.333  0.917  0.460-  14 1.97  11 1.97  23 1.97  70 1.99
 166  0.333  0.917  0.794-  15 1.98  12 1.98  24 1.98  71 1.98
 167  0.583  0.167  0.127-  28 1.97  25 1.97  13 1.97  72 1.99
 168  0.583  0.167  0.460-  29 1.95  14 1.98  26 1.98  73 1.99
 169  0.583  0.167  0.794-  30 1.97  74 1.98  15 1.98  27 1.98
 170  0.583  0.417  0.129-  31 1.97  16 1.98  28 1.98  75 1.99
 171  0.587  0.423  0.463- 191 1.88  29 2.05  17 2.05  76 2.07
 172  0.584  0.419  0.791-  32 1.98  77 1.98  30 1.98  18 1.98
 173  0.583  0.667  0.129-  31 1.97  33 1.98  19 1.98  78 1.99
 174  0.586  0.664  0.463- 191 1.88  34 2.04  20 2.04  79 2.07
 175  0.584  0.666  0.791-  32 1.98  80 1.98  35 1.98  21 1.98
 176  0.583  0.917  0.127-  33 1.97  25 1.97  22 1.97  81 1.99
 177  0.583  0.916  0.460-  34 1.95  23 1.98  26 1.98  82 1.99
 178  0.583  0.916  0.794-  35 1.98  83 1.98  24 1.98  27 1.98
 179  0.833  0.167  0.127-  25 1.97  39 1.97  36 1.97  84 1.99
 180  0.833  0.166  0.460-  26 1.97  37 1.97  40 1.97  85 1.99
 181  0.833  0.167  0.794-  27 1.98  41 1.98  38 1.98  86 1.98
 182  0.833  0.417  0.127-  42 1.97  28 1.97  39 1.98  87 1.99
 183  0.833  0.417  0.461-  43 1.96  29 1.96  40 1.99  88 1.99
 184  0.833  0.417  0.794-  89 1.97  44 1.98  30 1.98  41 1.98
 185  0.833  0.667  0.129-  31 1.97  45 1.98  42 1.98  90 1.99
 186  0.827  0.663  0.463- 191 1.88  43 2.05  46 2.05  91 2.07
 187  0.831  0.666  0.791-  32 1.98  92 1.98  44 1.98  47 1.98
 188  0.833  0.917  0.127-  33 1.97  45 1.97  36 1.98  93 1.99
 189  0.833  0.916  0.461-  34 1.96  46 1.96  94 1.99  37 1.99
 190  0.833  0.916  0.794-  95 1.97  35 1.98  47 1.98  38 1.98
 191  0.667  0.583  0.497- 171 1.88 186 1.88 174 1.88
 
  LATTYP: Found a hexagonal cell.
 ALAT       =    12.9943542480
 C/A-ratio  =     1.2014478222
  
  Lattice vectors:
  
 A1 = (  12.9943542480,   0.0000000000,   0.0000000000)
 A2 = (  -6.4971766472,  11.2534400587,   0.0000000000)
 A3 = (   0.0000000000,   0.0000000000,  15.6120386124)


Analysis of symmetry for initial positions (statically):
=====================================================================
 Subroutine PRICEL returns:
 Original cell was already a primitive cell.
 

 Routine SETGRP: Setting up the symmetry group for a 
 hexagonal supercell.


 Subroutine GETGRP returns: Found  2 space group operations
 (whereof  1 operations were pure point group operations)
 out of a pool of 24 trial point group operations.


The static configuration has the point symmetry C_1 .
 The point group associated with its full space group is C_1h.


Analysis of symmetry for dynamics (positions and initial velocities):
=====================================================================
 Subroutine PRICEL returns:
 Original cell was already a primitive cell.
 

 Routine SETGRP: Setting up the symmetry group for a 
 hexagonal supercell.


 Subroutine GETGRP returns: Found  2 space group operations
 (whereof  1 operations were pure point group operations)
 out of a pool of 24 trial point group operations.


The dynamic configuration has the point symmetry C_1 .
 The point group associated with its full space group is C_1h.


Analysis of structural, dynamic, and magnetic symmetry:
=====================================================================
 Subroutine PRICEL returns:
 Original cell was already a primitive cell.
 

 Routine SETGRP: Setting up the symmetry group for a 
 hexagonal supercell.


 Subroutine GETGRP returns: Found  2 space group operations
 (whereof  1 operations were pure point group operations)
 out of a pool of 24 trial point group operations.


The overall configuration has the point symmetry C_1 .
 The point group associated with its full space group is C_1h.


 Subroutine INISYM returns: Found  2 space group operations
 (whereof  1 operations are pure point group operations),
 and found     1 'primitive' translations


----------------------------------------------------------------------------------------

                                     Primitive cell                                     

  volume of cell :    2282.9669

  direct lattice vectors                    reciprocal lattice vectors
    12.994354248  0.000000000  0.000000000     0.076956498  0.044430855  0.000000000
    -6.497176647 11.253440059  0.000000000     0.000000000  0.088861716  0.000000000
     0.000000000  0.000000000 15.612038612     0.000000000  0.000000000  0.064053134

  length of vectors
    12.994354248 12.994353294 15.612038612     0.088861710  0.088861716  0.064053134

  position of ions in fractional coordinates (direct lattice)
     0.166639875  0.083360117  0.166256963
     0.166738129  0.083261863  0.500273446
     0.166681339  0.083318653  0.833398083
     0.166432077  0.333209913  0.166387349
     0.166195898  0.333093232  0.500107184
     0.166635510  0.333309505  0.833620807
     0.166633118  0.583266222  0.166256421
     0.166742077  0.583476392  0.500278906
     0.166679021  0.583360048  0.833404920
     0.166713963  0.833353701  0.166230406
     0.167230075  0.833616088  0.500341681
     0.166691632  0.833348753  0.833564095
     0.416646299  0.083286029  0.166230406
     0.416383912  0.082769917  0.500341681
     0.416651247  0.083308360  0.833564095
     0.415971666  0.332905410  0.166538918
     0.413074797  0.331133402  0.501636020
     0.417773563  0.333948052  0.832948853
     0.415962351  0.583069795  0.166534096
     0.412992400  0.581953644  0.501634702
     0.417752245  0.583841701  0.832972077
     0.416636642  0.833363358  0.166228091
     0.416347554  0.833652446  0.500347589
     0.416632296  0.833367704  0.833577281
     0.666733778  0.083366874  0.166256421
     0.666523608  0.083257915  0.500278906
     0.666639952  0.083320971  0.833404920
     0.666943149  0.332900162  0.166533411
     0.668130888  0.331067709  0.501644981
     0.666195035  0.333923070  0.832968180
     0.666665970  0.583334030  0.167050600
     0.666656167  0.583343833  0.835027939
     0.666930205  0.834037649  0.166534096
     0.668046356  0.837007600  0.501634702
     0.666158299  0.832247755  0.832972077
     0.916790087  0.083567915  0.166387349
     0.916906768  0.083804094  0.500107184
     0.916690495  0.083364482  0.833620807
     0.916793651  0.333206349  0.166387284
     0.916918460  0.333081540  0.500106484
     0.916704487  0.333295513  0.833637346
     0.917099838  0.583056851  0.166533411
     0.918932291  0.581869112  0.501644981
     0.916076930  0.583804965  0.832968180
     0.917094590  0.834028334  0.166538918
     0.918866598  0.836925203  0.501636020
     0.916051948  0.832226437  0.832948853
     0.083343497  0.166656495  0.000049131
     0.083310122  0.166689870  0.333098032
     0.083409730  0.166590262  0.666961003
     0.083348749  0.416680991  0.000057118
     0.083317377  0.416626212  0.333094834
     0.083446434  0.416850520  0.666975031
     0.083226436  0.666591533  0.999790022
     0.084210048  0.667017384  0.332866670
     0.082237529  0.666734168  0.667260446
     0.083223435  0.916624626  0.999780790
     0.084215049  0.917202082  0.332873262
     0.082165830  0.915475649  0.667241366
     0.333375374  0.166776557  0.999780790
     0.332797918  0.165784943  0.332873262
     0.334524351  0.167834162  0.667241366
     0.333423259  0.416715404  0.999745813
     0.332388227  0.416204453  0.333053788
     0.333673030  0.416872419  0.667802765
     0.333366169  0.666601615  0.999792802
     0.332799827  0.667034238  0.332862911
     0.334502622  0.666784048  0.667263529
     0.333327079  0.916672921  0.000045424
     0.333323161  0.916676839  0.332739758
     0.333299290  0.916700710  0.666984772
     0.583408467  0.166773556  0.999790022
     0.582982616  0.165789944  0.332866670
     0.583265832  0.167762463  0.667260446
     0.583221481  0.416422082  0.000817738
     0.582464225  0.414899918  0.330742095
     0.589649739  0.429154998  0.664454579
     0.583212219  0.666787781  0.000824525
     0.582441506  0.667558494  0.330733173
     0.589560856  0.660439144  0.664469961
     0.583398385  0.916633831  0.999792802
     0.582965762  0.917200173  0.332862911
     0.583215952  0.915497378  0.667263529
     0.833319009  0.166651243  0.000057118
     0.833373788  0.166682615  0.333094834
     0.833149480  0.166553558  0.666975031
     0.833275342  0.416724658  0.999744638
     0.833818698  0.416181302  0.333049278
     0.833237839  0.416762161  0.667827143
     0.833577918  0.666778519  0.000817738
     0.835100082  0.667535775  0.330742095
     0.820845002  0.660350261  0.664454579
     0.833284596  0.916576741  0.999745813
     0.833795547  0.917611773  0.333053788
     0.833127581  0.916326970  0.667802765
     0.166629983  0.083370009  0.293770426
     0.166968744  0.083031248  0.627155437
     0.166672704  0.083327288  0.960471354
     0.166639935  0.333312280  0.293846261
     0.167504203  0.333751320  0.626961382
     0.166767069  0.333374744  0.960620381
     0.166624239  0.583243377  0.293764274
     0.166989654  0.583949864  0.627156890
     0.166670886  0.583327812  0.960477508
     0.166580205  0.833289155  0.293727063
     0.166303099  0.833156514  0.626959977
     0.166625286  0.833309477  0.960556550
     0.416710845  0.083419787  0.293727063
     0.416843486  0.083696893  0.626959977
     0.416690523  0.083374706  0.960556550
     0.416717706  0.333362996  0.294616813
     0.420574959  0.336488217  0.627463715
     0.417275318  0.333701995  0.960188001
     0.416703137  0.583357042  0.294611177
     0.420516031  0.584181772  0.627462678
     0.417271109  0.583579682  0.960204121
     0.416699410  0.833300590  0.293722278
     0.416801841  0.833198159  0.626962104
     0.416686972  0.833313028  0.960565799
     0.666756623  0.083375753  0.293764274
     0.666050136  0.083010338  0.627156890
     0.666672188  0.083329106  0.960477508
     0.666662491  0.333347424  0.294607727
     0.665983510  0.336387818  0.627471500
     0.666440602  0.333684071  0.960202530
     0.666663909  0.583336091  0.296677334
     0.666670879  0.583329121  0.961421753
     0.666642958  0.833296863  0.294611177
     0.665818228  0.829483969  0.627462678
     0.666420318  0.832728891  0.960204121
     0.916687720  0.083360057  0.293846261
     0.916248680  0.082495789  0.626961382
     0.916625256  0.083232923  0.960620381
     0.916698983  0.333301017  0.293842181
     0.916315298  0.333684702  0.626959121
     0.916635482  0.333364518  0.960625252
     0.916652576  0.583337509  0.294607727
     0.913612182  0.584016490  0.627471500
     0.916315929  0.583559398  0.960202530
     0.916637004  0.833282294  0.294616813
     0.913511783  0.829425041  0.627463715
     0.916298005  0.832724682  0.960188001
     0.083339522  0.166660470  0.127283433
     0.083494802  0.166505190  0.460405416
     0.083316052  0.166683940  0.793695017
     0.083342631  0.416679352  0.127288120
     0.083529236  0.417016271  0.460399517
     0.083331143  0.416647310  0.793702356
     0.083167494  0.666564779  0.127234774
     0.082651046  0.666733782  0.460341719
     0.082932553  0.666548725  0.793812702
     0.083162484  0.916606436  0.127230394
     0.082607932  0.915896992  0.460350831
     0.082918285  0.916379469  0.793800565
     0.333393564  0.166837508  0.127230394
     0.334103008  0.167392060  0.460350831
     0.333620531  0.167081707  0.793800565
     0.333445605  0.416729565  0.127356635
     0.334296958  0.417175902  0.460515052
     0.333514932  0.416775610  0.794070956
     0.333387500  0.666571318  0.127234939
     0.334082903  0.666779281  0.460338537
     0.333605300  0.666577057  0.793816183
     0.333325379  0.916674621  0.127282275
     0.333308289  0.916691711  0.460018920
     0.333319073  0.916680927  0.793744539
     0.583435221  0.166832498  0.127234774
     0.583266218  0.167348946  0.460341719
     0.583451275  0.167067439  0.793812702
     0.583421240  0.416848207  0.128519239
     0.586638323  0.423120416  0.462976657
     0.584331365  0.418605920  0.791204913
     0.583416598  0.666583402  0.128520932
     0.586481560  0.663518440  0.462962399
     0.584273893  0.665726107  0.791211509
     0.583428682  0.916612500  0.127234939
     0.583220719  0.915917097  0.460338537
     0.583422943  0.916394700  0.793816183
     0.833320648  0.166657361  0.127288120
     0.832983729  0.166470756  0.460399517
     0.833352690  0.166668849  0.793702356
     0.833282264  0.416717736  0.127360277
     0.832904545  0.417095455  0.460500731
     0.833267081  0.416732919  0.794079838
     0.833151793  0.666578760  0.128519239
     0.826879584  0.663361677  0.462976657
     0.831394080  0.665668635  0.791204913
     0.833270435  0.916554395  0.127356635
     0.832824098  0.915703042  0.460515052
     0.833224390  0.916485068  0.794070956
     0.666671679  0.583328321  0.496793558

  ion indices of the primitive-cell ions
   primitive index   ion index
                 1           1
                 2           2
                 3           3
                 4           4
                 5           5
                 6           6
                 7           7
                 8           8
                 9           9
                10          10
                11          11
                12          12
                13          13
                14          14
                15          15
                16          16
                17          17
                18          18
                19          19
                20          20
                21          21
                22          22
                23          23
                24          24
                25          25
                26          26
                27          27
                28          28
                29          29
                30          30
                31          31
                32          32
                33          33
                34          34
                35          35
                36          36
                37          37
                38          38
                39          39
                40          40
                41          41
                42          42
                43          43
                44          44
                45          45
                46          46
                47          47
                48          48
                49          49
                50          50
                51          51
                52          52
                53          53
                54          54
                55          55
                56          56
                57          57
                58          58
                59          59
                60          60
                61          61
                62          62
                63          63
                64          64
                65          65
                66          66
                67          67
                68          68
                69          69
                70          70
                71          71
                72          72
                73          73
                74          74
                75          75
                76          76
                77          77
                78          78
                79          79
                80          80
                81          81
                82          82
                83          83
                84          84
                85          85
                86          86
                87          87
                88          88
                89          89
                90          90
                91          91
                92          92
                93          93
                94          94
                95          95
                96          96
                97          97
                98          98
                99          99
               100         100
               101         101
               102         102
               103         103
               104         104
               105         105
               106         106
               107         107
               108         108
               109         109
               110         110
               111         111
               112         112
               113         113
               114         114
               115         115
               116         116
               117         117
               118         118
               119         119
               120         120
               121         121
               122         122
               123         123
               124         124
               125         125
               126         126
               127         127
               128         128
               129         129
               130         130
               131         131
               132         132
               133         133
               134         134
               135         135
               136         136
               137         137
               138         138
               139         139
               140         140
               141         141
               142         142
               143         143
               144         144
               145         145
               146         146
               147         147
               148         148
               149         149
               150         150
               151         151
               152         152
               153         153
               154         154
               155         155
               156         156
               157         157
               158         158
               159         159
               160         160
               161         161
               162         162
               163         163
               164         164
               165         165
               166         166
               167         167
               168         168
               169         169
               170         170
               171         171
               172         172
               173         173
               174         174
               175         175
               176         176
               177         177
               178         178
               179         179
               180         180
               181         181
               182         182
               183         183
               184         184
               185         185
               186         186
               187         187
               188         188
               189         189
               190         190
               191         191

----------------------------------------------------------------------------------------

 
 
 KPOINTS: pymatgen with grid density = 659 / numbe

Automatic generation of k-mesh.
 Grid dimensions read from file:
 generate k-points for:    1    1    1

 Generating k-lattice:

  Cartesian coordinates                     Fractional coordinates (reciprocal lattice)
     0.076956498  0.044430855  0.000000000     1.000000000  0.000000000  0.000000000
     0.000000000  0.088861716  0.000000000     0.000000000  1.000000000  0.000000000
     0.000000000  0.000000000  0.064053134     0.000000000  0.000000000  1.000000000

  Length of vectors
     0.088861710  0.088861716  0.064053134

  Shift w.r.t. Gamma in fractional coordinates (k-lattice)
     0.000000000  0.000000000  0.000000000

 
 Subroutine IBZKPT returns following result:
 ===========================================
 
 Found      1 irreducible k-points:
 
 Following reciprocal coordinates:
            Coordinates               Weight
  0.000000  0.000000  0.000000      1.000000
 
 Following cartesian coordinates:
            Coordinates               Weight
  0.000000  0.000000  0.000000      1.000000
 
 
 Subroutine IBZKPT_HF returns following result:
 ==============================================
 
 Found      1 k-points in 1st BZ
 the following      1 k-points will be used (e.g. in the exchange kernel)
 Following reciprocal coordinates:   # in IRBZ
  0.000000  0.000000  0.000000    1.00000000   1 t-inv F


--------------------------------------------------------------------------------------------------------




 Dimension of arrays:
   k-points           NKPTS =      1   k-points in BZ     NKDIM =      1   number of bands    NBANDS=   1056
   number of dos      NEDOS =    301   number of ions     NIONS =    191
   non local maximal  LDIM  =      6   non local SUM 2l+1 LMDIM =     18
   total plane-waves  NPLWV = 327680
   max r-space proj   IRMAX =   2514   max aug-charges    IRDMAX=   8903
   dimension x,y,z NGX =    64 NGY =   64 NGZ =   80
   dimension x,y,z NGXF=   128 NGYF=  128 NGZF=  160
   support grid    NGXF=   128 NGYF=  128 NGZF=  160
   ions per type =              95  95   1
   NGX,Y,Z   is equivalent  to a cutoff of   8.19,  8.19,  8.52 a.u.
   NGXF,Y,Z  is equivalent  to a cutoff of  16.38, 16.38, 17.04 a.u.

 SYSTEM =  zno                                     
 POSCAR =  Zn2 O2                                  

 Startparameter for this run:
   NWRITE =      2    write-flag & timer
   PREC   = normal    normal or accurate (medium, high low for compatibility)
   ISTART =      1    job   : 0-new  1-cont  2-samecut
   ICHARG =      0    charge: 1-file 2-atom 10-const
   ISPIN  =      2    spin polarized calculation?
   LNONCOLLINEAR =      F non collinear calculations
   LSORBIT =      F    spin-orbit coupling
   INIWAV =      1    electr: 0-lowe 1-rand  2-diag
   LASPH  =      F    aspherical Exc in radial PAW
 Electronic Relaxation 1
   ENCUT  =  400.0 eV  29.40 Ry    5.42 a.u.  21.19 21.19 25.46*2*pi/ulx,y,z
   ENINI  =  400.0     initial cutoff
   ENAUG  =  605.4 eV  augmentation charge cutoff
   NELM   =   1500;   NELMIN=  4; NELMDL=  0     # of ELM steps 
   EDIFF  = 0.1E-05   stopping-criterion for ELM
   LREAL  =      T    real-space projection
   NLSPLINE    = F    spline interpolate recip. space projectors
   LCOMPAT=      F    compatible to vasp.4.4
   GGA_COMPAT  = T    GGA compatible to vasp.4.4-vasp.4.6
   LMAXPAW     = -100 max onsite density
   LMAXMIX     =    2 max onsite mixed and CHGCAR
   VOSKOWN=      0    Vosko Wilk Nusair interpolation
   ROPT   =   -0.00050  -0.00050  -0.00050
 Ionic relaxation
   EDIFFG = -.1E-01   stopping-criterion for IOM
   NSW    =     20    number of steps for IOM
   NBLOCK =      1;   KBLOCK =     20    inner block; outer block 
   IBRION =      2    ionic relax: 0-MD 1-quasi-New 2-CG
   NFREE  =      1    steps in history (QN), initial steepest desc. (CG)
   ISIF   =      2    stress and relaxation
   IWAVPR =     11    prediction:  0-non 1-charg 2-wave 3-comb
   ISYM   =      3    0-nonsym 1-usesym 2-fastsym
   LCORR  =      T    Harris-Foulkes like correction to forces

   POTIM  = 0.5000    time-step for ionic-motion
   TEIN   =    0.0    initial temperature
   TEBEG  =    0.0;   TEEND  =   0.0 temperature during run
   SMASS  =  -3.00    Nose mass-parameter (am)
   estimated Nose-frequenzy (Omega)   =  0.10E-29 period in steps = 0.13E+47 mass=  -0.386E-26a.u.
   SCALEE = 1.0000    scale energy and forces
   NPACO  =    256;   APACO  = 10.0  distance and # of slots for P.C.
   PSTRESS=    0.0 pullay stress

  Mass of Ions in am
   POMASS =  65.39 16.00 50.94
  Ionic Valenz
   ZVAL   =  12.00  6.00  5.00
  Atomic Wigner-Seitz radii
   RWIGS  =  -1.00 -1.00 -1.00
  virtual crystal weights 
   VCA    =   1.00  1.00  1.00
   NELECT =    1714.0000    total number of electrons
   NUPDOWN=      -1.0000    fix difference up-down

 DOS related values:
   EMIN   =  10.00;   EMAX   =-10.00  energy-range for DOS
   EFERMI =   0.00;   METHOD = LEGACY      
   ISMEAR =     0;   SIGMA  =   0.01  broadening in eV -4-tet -1-fermi 0-gaus

 Electronic relaxation 2 (details)
   IALGO  =     53    algorithm
   LDIAG  =      T    sub-space diagonalisation (order eigenvalues)
   LSUBROT=      F    optimize rotation matrix (better conditioning)
   TURBO    =      0    0=normal 1=particle mesh
   IRESTART =      0    0=no restart 2=restart with 2 vectors
   NREBOOT  =      0    no. of reboots
   NMIN     =      0    reboot dimension
   EREF     =   0.00    reference energy to select bands
   IMIX   =      4    mixing-type and parameters
     AMIX     =   0.40;   BMIX     =  1.00
     AMIX_MAG =   1.60;   BMIX_MAG =  1.00
     AMIN     =   0.10
     WC   =   100.;   INIMIX=   1;  MIXPRE=   1;  MAXMIX= -45

 Intra band minimization:
   WEIMIN = 0.0010     energy-eigenvalue tresh-hold
   EBREAK =  0.24E-09  absolut break condition
   DEPER  =   0.30     relativ break condition  

   TIME   =   0.30     timestep for ELM

  volume/ion in A,a.u.               =      11.95        80.66
  Fermi-wavevector in a.u.,A,eV,Ry     =   1.487917  2.811755 30.121878  2.213896
  Thomas-Fermi vector in A             =   2.601017
 
 Write flags
   LWAVE        =      T    write WAVECAR
   LDOWNSAMPLE  =      F    k-point downsampling of WAVECAR
   LCHARG       =      T    write CHGCAR
   LVTOT        =      F    write LOCPOT, total local potential
   LVHAR        =      T    write LOCPOT, Hartree potential only
   LELF         =      F    write electronic localiz. function (ELF)
   LORBIT       =     11    0 simple, 1 ext, 2 COOP (PROOUT), +10 PAW based schemes


 Dipole corrections
   LMONO  =      F    monopole corrections only (constant potential shift)
   LDIPOL =      F    correct potential (dipole corrections)
   IDIPOL =      0    1-x, 2-y, 3-z, 4-all directions 
   EPSILON=  1.0000000 bulk dielectric constant

 Exchange correlation treatment:
   GGA     =    PE    GGA type
   LEXCH   =     8    internal setting for exchange type
   LIBXC   =     F    Libxc                    
   VOSKOWN =     0    Vosko Wilk Nusair interpolation
   EXXOEP  =     0    0=HF, 1=EXX-LHF (local Hartree Fock) 2=EXX OEP
   LHFCALC =     T    Hartree Fock is set to
   LSYMGRAD=     F    symmetrize gradient (conserves proper symmetry)
   PRECFOCK=normal    Normal, Fast or Accurate (Low or Medium for compatibility)
   LRHFCALC=     F    long range Hartree Fock
   LRSCOR  =     F    long range correlation only (use DFT for short range part)
   LTHOMAS =     F    Thomas Fermi screening in HF
   LMODELHF=     F    short range full HF, long range fraction AEXX
   FOCKCORR=     1    mode to apply convergence corrections
   LFOCKACE=     T    use Adeptively-Compressed-Exchange operator
   ENCUT4O =  -1.0   cutoff for four orbital integrals eV
   LMAXFOCK=     4    L truncation for augmentation on plane wave grid
   LMAXFOCKAE=  -1    L truncation for all-electron charge restoration on plane wave grid
   NMAXFOCKAE=   1    number of basis functions for all-electron charge restoration
   LFOCKAEDFT=     F  apply the AE augmentation even for DFT
   NKREDX  =     1    reduce k-point grid by
   NKREDY  =     1    reduce k-point grid by
   NKREDZ  =     1    reduce k-point grid by
   SHIFTRED=     F    shift reduced grid of Gamma
   HFKIDENT=     F    idential grid for each k-point
   ODDONLY =     F    use only odd q-grid points
   EVENONLY=     F    use only even q-grid points
   HFALPHA =   -1.0000 decay constant for conv. correction
   MCALPHA =    0.0000 extent of test-charge in conv. correction in multipole expansion
   AEXX    =    0.3750 exact exchange contribution
   HFSCREEN=    0.2000 screening length (either q_TF or 0.3 A-1)
   HFSCREENC=   0.2000 screening length for correlation (either q_TF or 0.3 A-1)
   HFRCUT  =    0.0000 spherical cutoff for potential kernel
   ALDAX   =    0.6250 LDA exchange part
   AGGAX   =    0.6250 GGA exchange part
   ALDAC   =    1.0000 LDA correlation
   AGGAC   =    1.0000 GGA correlation
   ENCUTFOCK=  -1.0 apply spherical cutoff to Coloumb kernel
   NBANDSGWLOW=     1    first orbital included in HF term
   NBLOCK_FOCK=    64    blocking factor in FOCK_ACC

 Linear response parameters
   LEPSILON=     F    determine dielectric tensor
   LRPA    =     F    only Hartree local field effects (RPA)
   LNABLA  =     F    use nabla operator in PAW spheres
   LVEL    =     F    velocity operator in full k-point grid
   CSHIFT  =0.1000    complex shift for real part using Kramers Kronig
   OMEGAMAX=  -1.0    maximum frequency
   DEG_THRESHOLD= 0.2000000E-02 threshold for treating states as degnerate
   RTIME   =   -0.100 relaxation time in fs
  (WPLASMAI=    0.000 imaginary part of plasma frequency in eV, 0.658/RTIME)
   DFIELD  = 0.0000000 0.0000000 0.0000000 field for delta impulse in time
 
  Optional k-point grid parameters
   LKPOINTS_OPT  =     F    use optional k-point grid
   KPOINTS_OPT_MODE=     1    mode for optional k-point grid
 
 Orbital magnetization related:
   ORBITALMAG=     F  switch on orbital magnetization
   LCHIMAG   =     F  perturbation theory with respect to B field
   DQ        =  0.001000  dq finite difference perturbation B field
   LLRAUG    =     F  two centre corrections for induced B field
   LBONE     =     F  B-component reconstruction in AE one-centre
   LVGVCALC  =     T  calculate vGv susceptibility
   LVGVAPPL  =     F  apply vGv susceptibility instead of pGv for G=0

 Random number generation:
   RANDOM_GENERATOR = DEFAULT
   PCG_SEED         = not used


--------------------------------------------------------------------------------------------------------


 conjugate gradient relaxation of ions
 charge density and potential will be updated during run
 spin polarized calculation
 Conjugate gradient for all bands (Freysoldt, et al. PRB 79, 241103 (2009))
 perform sub-space diagonalisation
    before iterative eigenvector-optimisation
 modified Broyden-mixing scheme, WC =      100.0
 initial mixing is a Kerker type mixing with AMIX =  0.4000 and BMIX =      1.0000
 Hartree-type preconditioning will be used
 using additional bands          199
 real space projection scheme for non local part
 use partial core corrections
 no Harris-corrections to forces 
 use gradient corrections 
 use of overlap-Matrix (Vanderbilt PP)
 Gauss-broadening in eV      SIGMA  =   0.01


--------------------------------------------------------------------------------------------------------


  energy-cutoff  :      400.00
  volume of cell :     2282.97
      direct lattice vectors                 reciprocal lattice vectors
    12.994354248  0.000000000  0.000000000     0.076956498  0.044430855  0.000000000
    -6.497176647 11.253440059  0.000000000     0.000000000  0.088861716  0.000000000
     0.000000000  0.000000000 15.612038612     0.000000000  0.000000000  0.064053134

  length of vectors
    12.994354248 12.994353294 15.612038612     0.088861710  0.088861716  0.064053134


 
 old parameters found on file WAVECAR:
  energy-cutoff  :      400.00
  volume of cell :     2282.97
      direct lattice vectors                 reciprocal lattice vectors
    12.994354248  0.000000000  0.000000000     0.076956498  0.044430855  0.000000000
    -6.497176647 11.253440059  0.000000000     0.000000000  0.088861716  0.000000000
     0.000000000  0.000000000 15.612038612     0.000000000  0.000000000  0.064053134

  length of vectors

 
 k-points in units of 2pi/SCALE and weight: pymatgen with grid density = 659 / numbe
   0.00000000  0.00000000  0.00000000       1.000
 
 k-points in reciprocal lattice and weights: pymatgen with grid density = 659 / numbe
   0.00000000  0.00000000  0.00000000       1.000
 
 position of ions in fractional coordinates (direct lattice) 
   0.16663987  0.08336012  0.16625696
   0.16673813  0.08326186  0.50027345
   0.16668134  0.08331865  0.83339808
   0.16643208  0.33320991  0.16638735
   0.16619590  0.33309323  0.50010718
   0.16663551  0.33330951  0.83362081
   0.16663312  0.58326622  0.16625642
   0.16674208  0.58347639  0.50027891
   0.16667902  0.58336005  0.83340492
   0.16671396  0.83335370  0.16623041
   0.16723008  0.83361609  0.50034168
   0.16669163  0.83334875  0.83356410
   0.41664630  0.08328603  0.16623041
   0.41638391  0.08276992  0.50034168
   0.41665125  0.08330836  0.83356410
   0.41597167  0.33290541  0.16653892
   0.41307480  0.33113340  0.50163602
   0.41777356  0.33394805  0.83294885
   0.41596235  0.58306979  0.16653410
   0.41299240  0.58195364  0.50163470
   0.41775225  0.58384170  0.83297208
   0.41663664  0.83336336  0.16622809
   0.41634755  0.83365245  0.50034759
   0.41663230  0.83336770  0.83357728
   0.66673378  0.08336687  0.16625642
   0.66652361  0.08325792  0.50027891
   0.66663995  0.08332097  0.83340492
   0.66694315  0.33290016  0.16653341
   0.66813089  0.33106771  0.50164498
   0.66619503  0.33392307  0.83296818
   0.66666597  0.58333403  0.16705060
   0.66665617  0.58334383  0.83502794
   0.66693021  0.83403765  0.16653410
   0.66804636  0.83700760  0.50163470
   0.66615830  0.83224775  0.83297208
   0.91679009  0.08356791  0.16638735
   0.91690677  0.08380409  0.50010718
   0.91669049  0.08336448  0.83362081
   0.91679365  0.33320635  0.16638728
   0.91691846  0.33308154  0.50010648
   0.91670449  0.33329551  0.83363735
   0.91709984  0.58305685  0.16653341
   0.91893229  0.58186911  0.50164498
   0.91607693  0.58380497  0.83296818
   0.91709459  0.83402833  0.16653892
   0.91886660  0.83692520  0.50163602
   0.91605195  0.83222644  0.83294885
   0.08334350  0.16665649  0.00004913
   0.08331012  0.16668987  0.33309803
   0.08340973  0.16659026  0.66696100
   0.08334875  0.41668099  0.00005712
   0.08331738  0.41662621  0.33309483
   0.08344643  0.41685052  0.66697503
   0.08322644  0.66659153  0.99979002
   0.08421005  0.66701738  0.33286667
   0.08223753  0.66673417  0.66726045
   0.08322343  0.91662463  0.99978079
   0.08421505  0.91720208  0.33287326
   0.08216583  0.91547565  0.66724137
   0.33337537  0.16677656  0.99978079
   0.33279792  0.16578494  0.33287326
   0.33452435  0.16783416  0.66724137
   0.33342326  0.41671540  0.99974581
   0.33238823  0.41620445  0.33305379
   0.33367303  0.41687242  0.66780277
   0.33336617  0.66660161  0.99979280
   0.33279983  0.66703424  0.33286291
   0.33450262  0.66678405  0.66726353
   0.33332708  0.91667292  0.00004542
   0.33332316  0.91667684  0.33273976
   0.33329929  0.91670071  0.66698477
   0.58340847  0.16677356  0.99979002
   0.58298262  0.16578994  0.33286667
   0.58326583  0.16776246  0.66726045
   0.58322148  0.41642208  0.00081774
   0.58246422  0.41489992  0.33074209
   0.58964974  0.42915500  0.66445458
   0.58321222  0.66678778  0.00082452
   0.58244151  0.66755849  0.33073317
   0.58956086  0.66043914  0.66446996
   0.58339839  0.91663383  0.99979280
   0.58296576  0.91720017  0.33286291
   0.58321595  0.91549738  0.66726353
   0.83331901  0.16665124  0.00005712
   0.83337379  0.16668261  0.33309483
   0.83314948  0.16655356  0.66697503
   0.83327534  0.41672466  0.99974464
   0.83381870  0.41618130  0.33304928
   0.83323784  0.41676216  0.66782714
   0.83357792  0.66677852  0.00081774
   0.83510008  0.66753578  0.33074209
   0.82084500  0.66035026  0.66445458
   0.83328460  0.91657674  0.99974581
   0.83379555  0.91761177  0.33305379
   0.83312758  0.91632697  0.66780277
   0.16662998  0.08337001  0.29377043
   0.16696874  0.08303125  0.62715544
   0.16667270  0.08332729  0.96047135
   0.16663993  0.33331228  0.29384626
   0.16750420  0.33375132  0.62696138
   0.16676707  0.33337474  0.96062038
   0.16662424  0.58324338  0.29376427
   0.16698965  0.58394986  0.62715689
   0.16667089  0.58332781  0.96047751
   0.16658021  0.83328915  0.29372706
   0.16630310  0.83315651  0.62695998
   0.16662529  0.83330948  0.96055655
   0.41671085  0.08341979  0.29372706
   0.41684349  0.08369689  0.62695998
   0.41669052  0.08337471  0.96055655
   0.41671771  0.33336300  0.29461681
   0.42057496  0.33648822  0.62746372
   0.41727532  0.33370199  0.96018800
   0.41670314  0.58335704  0.29461118
   0.42051603  0.58418177  0.62746268
   0.41727111  0.58357968  0.96020412
   0.41669941  0.83330059  0.29372228
   0.41680184  0.83319816  0.62696210
   0.41668697  0.83331303  0.96056580
   0.66675662  0.08337575  0.29376427
   0.66605014  0.08301034  0.62715689
   0.66667219  0.08332911  0.96047751
   0.66666249  0.33334742  0.29460773
   0.66598351  0.33638782  0.62747150
   0.66644060  0.33368407  0.96020253
   0.66666391  0.58333609  0.29667733
   0.66667088  0.58332912  0.96142175
   0.66664296  0.83329686  0.29461118
   0.66581823  0.82948397  0.62746268
   0.66642032  0.83272889  0.96020412
   0.91668772  0.08336006  0.29384626
   0.91624868  0.08249579  0.62696138
   0.91662526  0.08323292  0.96062038
   0.91669898  0.33330102  0.29384218
   0.91631530  0.33368470  0.62695912
   0.91663548  0.33336452  0.96062525
   0.91665258  0.58333751  0.29460773
   0.91361218  0.58401649  0.62747150
   0.91631593  0.58355940  0.96020253
   0.91663700  0.83328229  0.29461681
   0.91351178  0.82942504  0.62746372
   0.91629801  0.83272468  0.96018800
   0.08333952  0.16666047  0.12728343
   0.08349480  0.16650519  0.46040542
   0.08331605  0.16668394  0.79369502
   0.08334263  0.41667935  0.12728812
   0.08352924  0.41701627  0.46039952
   0.08333114  0.41664731  0.79370236
   0.08316749  0.66656478  0.12723477
   0.08265105  0.66673378  0.46034172
   0.08293255  0.66654872  0.79381270
   0.08316248  0.91660644  0.12723039
   0.08260793  0.91589699  0.46035083
   0.08291828  0.91637947  0.79380057
   0.33339356  0.16683751  0.12723039
   0.33410301  0.16739206  0.46035083
   0.33362053  0.16708171  0.79380057
   0.33344560  0.41672957  0.12735663
   0.33429696  0.41717590  0.46051505
   0.33351493  0.41677561  0.79407096
   0.33338750  0.66657132  0.12723494
   0.33408290  0.66677928  0.46033854
   0.33360530  0.66657706  0.79381618
   0.33332538  0.91667462  0.12728228
   0.33330829  0.91669171  0.46001892
   0.33331907  0.91668093  0.79374454
   0.58343522  0.16683250  0.12723477
   0.58326622  0.16734895  0.46034172
   0.58345128  0.16706744  0.79381270
   0.58342124  0.41684821  0.12851924
   0.58663832  0.42312042  0.46297666
   0.58433137  0.41860592  0.79120491
   0.58341660  0.66658340  0.12852093
   0.58648156  0.66351844  0.46296240
   0.58427389  0.66572611  0.79121151
   0.58342868  0.91661250  0.12723494
   0.58322072  0.91591710  0.46033854
   0.58342294  0.91639470  0.79381618
   0.83332065  0.16665736  0.12728812
   0.83298373  0.16647076  0.46039952
   0.83335269  0.16666885  0.79370236
   0.83328226  0.41671774  0.12736028
   0.83290454  0.41709546  0.46050073
   0.83326708  0.41673292  0.79407984
   0.83315179  0.66657876  0.12851924
   0.82687958  0.66336168  0.46297666
   0.83139408  0.66566863  0.79120491
   0.83327043  0.91655440  0.12735663
   0.83282410  0.91570304  0.46051505
   0.83322439  0.91648507  0.79407096
   0.66667168  0.58332832  0.49679356
 
 position of ions in cartesian coordinates  (Angst):
   1.62377216  0.93808808  2.59561013
   1.62568729  0.93698238  7.81028835
   1.62458035  0.93762147 13.01104305
  -0.00224630  3.74975778  2.59764572
  -0.00455720  3.74844472  7.80769267
  -0.00024989  3.75087854 13.01452023
  -1.62429391  6.56375147  2.59560166
  -1.62424357  6.56611660  7.81037359
  -1.62430703  6.56480734 13.01114979
  -3.24810591  9.37809592  2.59519551
  -3.24310414  9.38104868  7.81135364
  -3.24836394  9.37804024 13.01363484
   4.87292557  0.93725433  2.59519551
   4.87286929  0.93144630  7.81135364
   4.87284477  0.93750564 13.01363484
   3.24233794  3.74633107  2.60001201
   3.21620804  3.72638989  7.83156092
   3.25897818  3.75806439 13.00402966
   1.61685469  6.56154098  2.59993674
   1.58551393  6.54898045  7.83154034
   1.63509799  6.57022759 13.00439223
  -0.00058484  9.37820460  2.59515938
  -0.00621959  9.38145783  7.81144587
  -0.00066955  9.37825351 13.01384069
   8.12212559  0.93816412  2.59560166
   8.12010249  0.93693796  7.81037359
   8.12120462  0.93764755 13.01114979
   6.50358438  3.74627202  2.59992605
   6.53092405  3.72565062  7.83170082
   6.48721711  3.75778325 13.00433140
   4.87286955  6.56451454  2.60800042
   4.87267847  6.56462486 13.03648843
   3.24743741  9.38579269  2.59993674
   3.24264478  9.41921485  7.83154034
   3.24903624  9.36565022 13.00439223
  11.37013966  0.94042652  2.59764572
  11.37012135  0.94308435  7.80769267
  11.37016726  0.93813720 13.01452023
   9.74824096  3.74971768  2.59764471
   9.75067369  3.74831314  7.80768174
   9.74650302  3.75072108 13.01477844
   8.12889681  6.56139532  2.59992605
   8.16042531  6.54802918  7.83170082
   8.11074416  6.56981418 13.00433140
   6.49822258  9.38568786  2.60001201
   6.50242720  9.41828761  7.83156092
   6.49638134  9.36541032 13.00402966
   0.00019824  1.87545888  0.00076703
  -0.00045229  1.87583446  5.20033934
   0.00148923  1.87471352 10.41262093
  -1.62418683  4.68909455  0.00089172
  -1.62423858  4.68847810  5.20028940
  -1.62401894  4.69100234 10.41283994
  -3.24948914  7.50144786 15.60876043
  -3.23947457  7.50624014  5.19672731
  -3.26326607  7.50305299 10.41729585
  -4.87403732 10.31518029 15.60861629
  -4.86490376 10.32167865  5.19683021
  -4.88031510 10.30225035 10.41699797
   3.24842095  1.87680999 15.60861629
   3.24735998  1.86565092  5.19683021
   3.25647972  1.88871168 10.41699797
   1.62514636  4.68948182 15.60807024
   1.61501652  4.68373186  5.19964861
   1.62737180  4.69124878 10.42576255
   0.00084965  7.50156132 15.60880382
  -0.00932043  7.50642982  5.19666863
   0.01443183  7.50361431 10.41734398
  -1.62441575 10.31572377  0.00070916
  -1.62449213 10.31576787  5.19474596
  -1.62495741 10.31603649 10.41299201
   6.49745904  1.87677621 15.60876043
   6.49831609  1.86570720  5.19672731
   6.48918049  1.88790482 10.41729585
   4.87301871  4.68618094  0.01276656
   4.87306841  4.66905135  5.16355835
   4.87382176  4.82947004 10.37349055
   3.24622817  7.50365633  0.01287251
   3.23120579  7.51232950  5.16341907
   3.36997282  7.43221232 10.37373069
   1.62535336 10.31528387 15.60880382
   1.61605208 10.32165717  5.19666863
   1.63036650 10.30249486 10.41734398
   9.74567984  1.87539977  0.00089172
   9.74618783  1.87575281  5.20028940
   9.74411159  1.87430048 10.41283994
   8.12034126  4.68958596 15.60805189
   8.13093210  4.68347134  5.19957819
   8.11961027  4.69000800 10.42614314
   6.49962894  7.50355209  0.01276656
   6.51448845  7.51207384  5.16355835
   6.37593844  7.43121208 10.37349055
   4.87283424 10.31464141 15.60807024
   4.87274893 10.32628908  5.19964861
   4.87241672 10.31183064 10.42576255
   1.62357935  0.93819940  4.58635523
   1.63018233  0.93438717  9.79117489
   1.62441206  0.93771864 14.99491586
  -0.00021042  3.75090977  4.58753917
   0.00816767  3.75585047  9.78814530
   0.00103577  3.75161270 14.99724247
  -1.62426086  6.56349439  4.58625919
  -1.62410270  6.57144479  9.79119759
  -1.62420331  6.56444456 14.99501194
  -3.24942464  9.37736955  4.58567824
  -3.25216367  9.37587689  9.78812336
  -3.24897088  9.37759825 14.99624595
   4.87289525  0.93875957  4.58567824
   4.87281842  0.94187797  9.78812336
   4.87292407  0.93825226 14.99624595
   3.24905922  3.75148049  4.59956906
   3.27887663  3.78664998  9.79598775
   3.25410249  3.75529539 14.99049214
   1.62461443  6.56477350  4.59948108
   1.66880211  6.57405455  9.79597155
   1.63054832  6.56727897 14.99074382
   0.00063862  9.37749824  4.58560354
   0.00263515  9.37634554  9.78815658
   0.00039619  9.37763821 14.99639034
   8.12236476  0.93826404  4.58625919
   8.11555859  0.93415186  9.79119759
   8.12157066  0.93773911 14.99501194
   6.49703148  3.75130526  4.59942721
   6.46845457  3.78552014  9.79610929
   6.49196091  3.75509370 14.99071897
   4.87282937  6.56453774  4.63173800
   4.87296523  6.56445930 15.00975353
   3.24851784  9.37745630  4.59948108
   3.26257405  9.33454812  9.79597155
   3.24931498  9.37106466 14.99074382
  11.37015995  0.93808741  4.58753917
  11.37007022  0.92836142  9.78814530
  11.37017428  0.93665671 14.99724247
   9.74639573  3.75078302  4.58747547
   9.73891714  3.75510079  9.78811001
   9.74515801  3.75149762 14.99731852
   8.12126145  6.56455369  4.59942721
   8.07734204  6.57219457  9.79610929
   8.11544529  6.56705071 14.99071897
   6.49712369  9.37729235  4.59956906
   6.48157472  9.33388498  9.79598775
   6.49634152  9.37101730 14.99049214
   0.00012076  1.87550361  1.98715388
   0.00314740  1.87375618  7.18786714
  -0.00033672  1.87576773 12.39119725
  -1.62425569  4.68907611  1.98722705
  -1.62401989  4.69286761  7.18777504
  -1.62419678  4.68871553 12.39131183
  -3.25008123  7.50114678  1.98639421
  -3.25789018  7.50304865  7.18687270
  -3.25302984  7.50096612 12.39303456
  -4.87471115 10.31497558  1.98632582
  -4.87730782 10.30699190  7.18701494
  -4.87640972 10.31242142 12.39284507
   3.24826132  1.87749590  1.98632582
   3.25387705  1.88373652  7.18701494
   3.24962400  1.88024398 12.39284507
   1.62534471  4.68964118  1.98829670
   1.63350756  4.69466401  7.18957877
   1.62594641  4.69015935 12.39706643
   0.00132367  7.50122038  1.98639678
   0.00900881  7.50356068  7.18682301
   0.00411657  7.50128495 12.39308889
  -1.62444889 10.31574290  1.98713580
  -1.62478199 10.31593522  7.18183314
  -1.62457179 10.31581386 12.39197040
   6.49742374  1.87743952  1.98639421
   6.49187220  1.88325133  7.18687270
   6.49610589  1.88008342 12.39303456
   4.87284584  4.69097631  2.00644731
   4.87389810  4.76156024  7.22800944
   4.87325215  4.71075663 12.35232165
   3.25021183  7.50135636  2.00647375
   3.30995264  7.46686499  7.22778685
   3.26692182  7.49170884 12.35242463
   1.62588564 10.31504383  1.98639678
   1.62770145 10.30721815  7.18682301
   1.62722616 10.31259282 12.39308889
   9.74566139  1.87546862  1.98722705
   9.74249576  1.87336867  7.18777504
   9.74600311  1.87559790 12.39131183
   8.12047619  4.68950806  1.98835356
   8.11311386  4.69375870  7.18935519
   8.12018025  4.68967892 12.39720509
   6.49538959  7.50130412  2.00644731
   6.43478824  7.46510087  7.22800944
   6.47846248  7.49106208 12.35232165
   4.87279540 10.31438995  1.98829670
   4.87252694 10.30480930  7.18957877
   4.87264751 10.31360978 12.39706643
   4.87298082  6.56445029  7.75596021
 


--------------------------------------------------------------------------------------------------------


 use parallel FFT for orbitals z direction half grid
 k-point   1 :   0.0000 0.0000 0.0000  plane waves:   20744

 maximum and minimum number of plane-waves per node :      2599     2585

 maximum number of plane-waves:     20744
 maximum index in each direction: 
   IXMAX=   21   IYMAX=   21   IZMAX=   25
   IXMIN=  -21   IYMIN=  -21   IZMIN=    0


 real space projection operators:
  total allocation   :      30035.34 KBytes
  max/ min on nodes  :       4075.12       3470.06


 parallel 3D FFT for wavefunctions:
    minimum data exchange during FFTs selected (reduces bandwidth)
 parallel 3D FFT for charge:
    minimum data exchange during FFTs selected (reduces bandwidth)

 
 Radii for the augmentation spheres in the non-local exchange
 for species   1 augmentation radius   1.190 (default was   0.952)
       energy cutoff for augmentation   1600.0
 for species   2 augmentation radius   0.902 (default was   0.722)
       energy cutoff for augmentation   1600.0
 for species   3 augmentation radius   1.508 (default was   1.206)
       energy cutoff for augmentation   1600.0

 real space projection operators:
  total allocation   :      22130.28 KBytes
  max/ min on nodes  :       2942.62       2494.20

 Maximum index for augmentation-charges in exchange          271
  SETUP_FOCK is finished

 total amount of memory used by VASP MPI-rank0    52333. kBytes
=======================================================================

   base      :      30000. kBytes
   nonlr-proj:       8622. kBytes
   fftplans  :       2267. kBytes
   grid      :       5113. kBytes
   one-center:        373. kBytes
   HF        :        129. kBytes
   wavefun   :       5829. kBytes
 
     INWAV:  cpu time     30.3870: real time     30.6608
[...]
      8.11308      4.69378      7.18930         0.001210     -0.000698     -0.000973
      8.12003      4.68976     12.39731        -0.000146      0.000084      0.001477
      6.49550      7.50134      2.00671        -0.000056      0.000095      0.005005
      6.43537      7.46535      7.22784        -0.002424     -0.000435      0.000580
      6.47855      7.49109     12.35249         0.000271      0.000228      0.002261
      4.87280     10.31452      1.98826        -0.000007      0.000044     -0.000537
      4.87260     10.30486      7.18954        -0.001062      0.000200     -0.000903
      4.87264     10.31345     12.39712        -0.000287     -0.000455      0.000984
      4.87246      6.56475      7.75603         0.001581     -0.000913     -0.006465
 -----------------------------------------------------------------------------------
    total drift:                                0.003392     -0.002117      0.019607


--------------------------------------------------------------------------------------------------------



  FREE ENERGIE OF THE ION-ELECTRON SYSTEM (eV)
  ---------------------------------------------------
  free  energy   TOTEN  =     -1222.82688584 eV

  energy  without entropy=    -1222.82688584  energy(sigma->0) =    -1222.82688584
 
 d Force =-0.4701764E-07[-0.437E-05, 0.428E-05]  d Energy =-0.1147429E-04 0.114E-04
 d Force = 0.6534746E-01[ 0.653E-01, 0.654E-01]  d Ewald  = 0.6534746E-01-0.262E-09


--------------------------------------------------------------------------------------------------------


    POTLOK:  cpu time      0.4796: real time      0.4815


--------------------------------------------------------------------------------------------------------




--------------------------------------------------------------------------------------------------------


  
 reached required accuracy - stopping structural energy minimisation
 writing wavefunctions
     LOOP+:  cpu time   1382.8244: real time   1410.4428
    4ORBIT:  cpu time      0.0000: real time      0.0000



 total charge

# of ion       s       p       d       tot
------------------------------------------
    1        0.409   0.478   9.951  10.838
    2        0.407   0.474   9.949  10.830
    3        0.407   0.475   9.950  10.833
    4        0.409   0.478   9.951  10.838
    5        0.408   0.475   9.950  10.832
    6        0.408   0.477   9.950  10.835
    7        0.409   0.479   9.951  10.839
    8        0.407   0.474   9.949  10.830
    9        0.408   0.476   9.950  10.833
   10        0.409   0.478   9.951  10.838
   11        0.408   0.478   9.951  10.838
   12        0.408   0.477   9.950  10.836
   13        0.409   0.478   9.951  10.838
   14        0.408   0.478   9.951  10.838
   15        0.408   0.477   9.950  10.836
   16        0.409   0.478   9.951  10.837
   17        0.409   0.474   9.947  10.831
   18        0.407   0.473   9.949  10.829
   19        0.409   0.478   9.951  10.837
   20        0.409   0.474   9.947  10.831
   21        0.407   0.473   9.949  10.830
   22        0.409   0.478   9.951  10.838
   23        0.408   0.478   9.951  10.838
   24        0.408   0.477   9.951  10.836
   25        0.409   0.479   9.951  10.839
   26        0.407   0.474   9.949  10.830
   27        0.408   0.476   9.950  10.833
   28        0.409   0.478   9.951  10.837
   29        0.409   0.474   9.947  10.831
   30        0.407   0.473   9.949  10.830
   31        0.408   0.473   9.949  10.830
   32        0.411   0.484   9.952  10.847
   33        0.409   0.478   9.951  10.837
   34        0.409   0.474   9.947  10.831
   35        0.407   0.473   9.949  10.830
   36        0.409   0.478   9.951  10.838
   37        0.408   0.475   9.950  10.832
   38        0.408   0.477   9.950  10.835
   39        0.409   0.478   9.951  10.838
   40        0.408   0.475   9.950  10.832
   41        0.408   0.477   9.951  10.835
   42        0.409   0.478   9.951  10.837
   43        0.409   0.474   9.947  10.831
   44        0.407   0.473   9.949  10.830
   45        0.409   0.478   9.951  10.837
   46        0.409   0.474   9.947  10.831
   47        0.407   0.473   9.949  10.829
   48        0.408   0.478   9.951  10.837
   49        0.409   0.479   9.951  10.839
   50        0.407   0.474   9.949  10.829
   51        0.408   0.478   9.951  10.837
   52        0.409   0.479   9.952  10.839
   53        0.407   0.474   9.949  10.830
   54        0.408   0.476   9.950  10.834
   55        0.409   0.479   9.952  10.840
   56        0.407   0.469   9.947  10.822
   57        0.408   0.476   9.950  10.834
   58        0.409   0.479   9.952  10.840
   59        0.406   0.469   9.947  10.822
   60        0.408   0.476   9.950  10.834
   61        0.409   0.479   9.952  10.840
   62        0.406   0.469   9.947  10.822
   63        0.407   0.475   9.950  10.832
   64        0.409   0.479   9.952  10.840
   65        0.408   0.476   9.950  10.834
   66        0.408   0.476   9.950  10.834
   67        0.409   0.479   9.952  10.840
   68        0.407   0.469   9.947  10.822
   69        0.408   0.478   9.951  10.837
   70        0.409   0.479   9.951  10.839
   71        0.407   0.474   9.949  10.830
   72        0.408   0.476   9.950  10.834
   73        0.409   0.479   9.952  10.840
   74        0.407   0.469   9.947  10.822
   75        0.408   0.477   9.950  10.835
   76        0.411   0.475   9.949  10.834
   77        0.431   0.426   9.892  10.749
   78        0.408   0.477   9.950  10.835
   79        0.411   0.475   9.949  10.834
   80        0.431   0.426   9.892  10.749
   81        0.408   0.476   9.950  10.834
   82        0.409   0.479   9.952  10.840
   83        0.407   0.469   9.947  10.822
   84        0.408   0.478   9.951  10.837
   85        0.409   0.479   9.952  10.839
   86        0.407   0.474   9.949  10.830
   87        0.407   0.475   9.950  10.832
   88        0.409   0.479   9.952  10.840
   89        0.408   0.477   9.950  10.835
   90        0.408   0.477   9.950  10.835
   91        0.411   0.475   9.949  10.834
   92        0.431   0.426   9.892  10.749
   93        0.407   0.475   9.950  10.832
   94        0.409   0.479   9.952  10.840
   95        0.408   0.476   9.950  10.834
   96        1.573   3.532   0.000   5.105
   97        1.574   3.523   0.000   5.097
   98        1.573   3.530   0.000   5.103
   99        1.573   3.532   0.000   5.105
  100        1.573   3.527   0.000   5.100
  101        1.573   3.531   0.000   5.104
  102        1.573   3.532   0.000   5.105
  103        1.574   3.523   0.000   5.097
  104        1.573   3.530   0.000   5.103
  105        1.573   3.531   0.000   5.105
  106        1.573   3.529   0.000   5.103
  107        1.573   3.531   0.000   5.104
  108        1.573   3.531   0.000   5.105
  109        1.573   3.529   0.000   5.103
  110        1.573   3.531   0.000   5.104
  111        1.573   3.531   0.000   5.105
  112        1.576   3.519   0.000   5.096
  113        1.573   3.529   0.000   5.102
  114        1.573   3.531   0.000   5.105
  115        1.576   3.520   0.000   5.096
  116        1.573   3.529   0.000   5.102
  117        1.573   3.531   0.000   5.105
  118        1.573   3.530   0.000   5.103
  119        1.573   3.531   0.000   5.104
  120        1.573   3.532   0.000   5.105
  121        1.574   3.523   0.000   5.097
  122        1.573   3.530   0.000   5.103
  123        1.573   3.531   0.000   5.105
  124        1.576   3.520   0.000   5.096
  125        1.573   3.529   0.000   5.102
  126        1.574   3.528   0.000   5.102
  127        1.573   3.530   0.000   5.104
  128        1.573   3.531   0.000   5.105
  129        1.576   3.520   0.000   5.096
  130        1.573   3.529   0.000   5.102
  131        1.573   3.532   0.000   5.105
  132        1.573   3.527   0.000   5.100
  133        1.573   3.531   0.000   5.104
  134        1.573   3.532   0.000   5.105
  135        1.573   3.527   0.000   5.100
  136        1.573   3.531   0.000   5.104
  137        1.573   3.531   0.000   5.105
  138        1.576   3.520   0.000   5.096
  139        1.573   3.529   0.000   5.102
  140        1.573   3.531   0.000   5.105
  141        1.576   3.519   0.000   5.096
  142        1.573   3.529   0.000   5.102
  143        1.573   3.532   0.000   5.105
  144        1.573   3.529   0.000   5.102
  145        1.573   3.530   0.000   5.103
  146        1.573   3.532   0.000   5.105
  147        1.573   3.529   0.000   5.102
  148        1.573   3.530   0.000   5.103
  149        1.573   3.531   0.000   5.104
  150        1.573   3.529   0.000   5.103
  151        1.573   3.530   0.000   5.103
  152        1.573   3.531   0.000   5.104
  153        1.573   3.529   0.000   5.103
  154        1.573   3.530   0.000   5.103
  155        1.573   3.531   0.000   5.104
  156        1.573   3.529   0.000   5.103
  157        1.573   3.530   0.000   5.103
  158        1.573   3.530   0.000   5.103
  159        1.574   3.531   0.000   5.104
  160        1.573   3.531   0.000   5.105
  161        1.573   3.531   0.000   5.104
  162        1.573   3.529   0.000   5.103
  163        1.573   3.530   0.000   5.103
  164        1.573   3.531   0.000   5.105
  165        1.573   3.531   0.000   5.104
  166        1.573   3.530   0.000   5.103
  167        1.573   3.531   0.000   5.104
  168        1.573   3.529   0.000   5.103
  169        1.573   3.530   0.000   5.103
  170        1.573   3.529   0.000   5.102
  171        1.584   3.529   0.000   5.112
  172        1.575   3.523   0.000   5.098
  173        1.573   3.529   0.000   5.102
  174        1.584   3.529   0.000   5.112
  175        1.575   3.523   0.000   5.098
  176        1.573   3.531   0.000   5.104
  177        1.573   3.529   0.000   5.103
  178        1.573   3.530   0.000   5.103
  179        1.573   3.532   0.000   5.105
  180        1.573   3.529   0.000   5.102
  181        1.573   3.530   0.000   5.103
  182        1.573   3.530   0.000   5.103
  183        1.574   3.531   0.000   5.104
  184        1.573   3.532   0.000   5.105
  185        1.573   3.529   0.000   5.102
  186        1.584   3.529   0.000   5.112
  187        1.575   3.523   0.000   5.098
  188        1.573   3.530   0.000   5.103
  189        1.574   3.531   0.000   5.104
  190        1.573   3.531   0.000   5.105
  191        0.487   0.716   3.457   4.660
--------------------------------------------------
tot        188.852 381.050 948.5301518.432



 magnetization (x)

# of ion       s       p       d       tot
------------------------------------------
    1       -0.000  -0.000   0.000  -0.000
    2        0.000   0.000  -0.000   0.000
    3       -0.000  -0.000   0.000  -0.000
    4       -0.000  -0.000   0.000  -0.000
    5       -0.000   0.000   0.000   0.000
    6       -0.000  -0.000  -0.000  -0.000
    7       -0.000  -0.000   0.000  -0.000
    8        0.000   0.000  -0.000   0.000
    9       -0.000  -0.000   0.000  -0.000
   10       -0.000  -0.000   0.000  -0.000
   11       -0.000   0.000   0.000   0.000
   12       -0.000  -0.000   0.000  -0.000
   13       -0.000  -0.000   0.000  -0.000
   14       -0.000   0.000   0.000   0.000
   15       -0.000  -0.000   0.000  -0.000
   16       -0.000   0.000   0.000  -0.000
   17        0.001   0.001   0.000   0.002
   18       -0.000  -0.000  -0.000  -0.000
   19       -0.000   0.000   0.000  -0.000
   20        0.001   0.001   0.000   0.002
   21       -0.000  -0.000  -0.000  -0.000
   22       -0.000  -0.000   0.000  -0.000
   23       -0.000   0.000   0.000   0.000
   24       -0.000  -0.000   0.000  -0.000
   25       -0.000  -0.000   0.000  -0.000
   26        0.000   0.000  -0.000   0.000
   27       -0.000  -0.000   0.000  -0.000
   28       -0.000   0.000   0.000  -0.000
   29        0.001   0.001   0.000   0.002
   30       -0.000  -0.000  -0.000  -0.000
   31        0.000   0.000  -0.000   0.000
   32        0.000   0.000  -0.000   0.001
   33       -0.000   0.000   0.000  -0.000
   34        0.001   0.001   0.000   0.002
   35       -0.000  -0.000  -0.000  -0.000
   36       -0.000  -0.000   0.000  -0.000
   37       -0.000   0.000   0.000   0.000
   38       -0.000  -0.000  -0.000  -0.000
   39       -0.000  -0.000   0.000  -0.000
   40       -0.000   0.000   0.000   0.000
   41       -0.000  -0.000  -0.000  -0.000
   42       -0.000   0.000   0.000  -0.000
   43        0.001   0.001   0.000   0.002
   44       -0.000  -0.000  -0.000  -0.000
   45       -0.000   0.000   0.000  -0.000
   46        0.001   0.001   0.000   0.002
   47       -0.000  -0.000  -0.000  -0.000
   48       -0.000  -0.000   0.000  -0.000
   49       -0.000  -0.000   0.000  -0.000
   50       -0.000  -0.000   0.000  -0.000
   51       -0.000  -0.000   0.000  -0.000
   52       -0.000  -0.000   0.000  -0.000
   53       -0.000  -0.000   0.000  -0.000
   54       -0.000  -0.000   0.000  -0.000
   55       -0.000   0.000   0.000  -0.000
   56       -0.000  -0.000   0.000  -0.000
   57       -0.000  -0.000   0.000  -0.000
   58       -0.000   0.000   0.000  -0.000
   59       -0.000  -0.000   0.000  -0.000
   60       -0.000  -0.000   0.000  -0.000
   61       -0.000   0.000   0.000  -0.000
   62       -0.000  -0.000   0.000  -0.000
   63       -0.000  -0.000  -0.000  -0.000
   64       -0.000  -0.000   0.000  -0.000
   65       -0.000  -0.000   0.000   0.000
   66       -0.000  -0.000   0.000  -0.000
   67       -0.000   0.000   0.000  -0.000
   68       -0.000  -0.000   0.000  -0.000
   69       -0.000  -0.000   0.000  -0.000
   70       -0.000  -0.000   0.000  -0.000
   71       -0.000  -0.000   0.000  -0.000
   72       -0.000  -0.000   0.000  -0.000
   73       -0.000   0.000   0.000  -0.000
   74       -0.000  -0.000   0.000  -0.000
   75       -0.000   0.000   0.000  -0.000
   76        0.001   0.001   0.000   0.003
   77       -0.007  -0.004   0.001  -0.010
   78       -0.000   0.000   0.000  -0.000
   79        0.001   0.001   0.000   0.003
   80       -0.007  -0.004   0.001  -0.010
   81       -0.000  -0.000   0.000  -0.000
   82       -0.000   0.000   0.000  -0.000
   83       -0.000  -0.000   0.000  -0.000
   84       -0.000  -0.000   0.000  -0.000
   85       -0.000  -0.000   0.000  -0.000
   86       -0.000  -0.000   0.000  -0.000
   87       -0.000  -0.000  -0.000  -0.000
   88       -0.000  -0.000   0.000  -0.000
   89       -0.000  -0.000   0.000   0.000
   90       -0.000   0.000   0.000  -0.000
   91        0.001   0.001   0.000   0.003
   92       -0.007  -0.004   0.001  -0.010
   93       -0.000  -0.000  -0.000  -0.000
   94       -0.000  -0.000   0.000  -0.000
   95       -0.000  -0.000   0.000   0.000
   96       -0.000   0.000   0.000  -0.000
   97       -0.000   0.000   0.000   0.000
   98       -0.000   0.000   0.000  -0.000
   99       -0.000   0.000   0.000   0.000
  100       -0.000   0.000   0.000   0.000
  101       -0.000  -0.000   0.000  -0.000
  102       -0.000   0.000   0.000  -0.000
  103       -0.000   0.000   0.000   0.000
  104       -0.000   0.000   0.000  -0.000
  105       -0.000   0.000   0.000  -0.000
  106       -0.000   0.000   0.000  -0.000
  107       -0.000  -0.000   0.000  -0.000
  108       -0.000   0.000   0.000  -0.000
  109       -0.000   0.000   0.000  -0.000
  110       -0.000  -0.000   0.000  -0.000
  111        0.000   0.000   0.000   0.000
  112       -0.000   0.001   0.000   0.001
  113       -0.000  -0.000   0.000  -0.000
  114        0.000   0.000   0.000   0.000
  115       -0.000   0.001   0.000   0.001
  116       -0.000  -0.000   0.000  -0.000
  117       -0.000   0.000   0.000  -0.000
  118       -0.000   0.000   0.000  -0.000
  119       -0.000  -0.000   0.000  -0.000
  120       -0.000   0.000   0.000  -0.000
  121       -0.000   0.000   0.000   0.000
  122       -0.000   0.000   0.000  -0.000
  123        0.000   0.000   0.000   0.000
  124       -0.000   0.001   0.000   0.001
  125       -0.000  -0.000   0.000  -0.000
  126        0.000   0.000   0.000   0.000
  127       -0.000   0.000   0.000  -0.000
  128        0.000   0.000   0.000   0.000
  129       -0.000   0.001   0.000   0.001
  130       -0.000  -0.000   0.000  -0.000
  131       -0.000   0.000   0.000   0.000
  132       -0.000   0.000   0.000   0.000
  133       -0.000  -0.000   0.000  -0.000
  134       -0.000   0.000   0.000   0.000
  135       -0.000   0.000   0.000   0.000
  136       -0.000  -0.000   0.000  -0.000
  137        0.000   0.000   0.000   0.000
  138       -0.000   0.001   0.000   0.001
  139       -0.000  -0.000   0.000  -0.000
  140        0.000   0.000   0.000   0.000
  141       -0.000   0.001   0.000   0.001
  142       -0.000  -0.000   0.000  -0.000
  143       -0.000   0.000   0.000  -0.000
  144       -0.000   0.000   0.000   0.000
  145       -0.000   0.000   0.000  -0.000
  146       -0.000   0.000   0.000  -0.000
  147       -0.000   0.000   0.000   0.000
  148       -0.000   0.000   0.000  -0.000
  149       -0.000   0.000   0.000  -0.000
  150       -0.000  -0.001   0.000  -0.001
  151       -0.000   0.000   0.000  -0.000
  152       -0.000   0.000   0.000  -0.000
  153       -0.000  -0.001   0.000  -0.001
  154       -0.000   0.000   0.000  -0.000
  155       -0.000   0.000   0.000  -0.000
  156       -0.000  -0.001   0.000  -0.001
  157       -0.000   0.000   0.000  -0.000
  158       -0.000   0.000   0.000  -0.000
  159        0.000   0.000   0.000   0.000
  160       -0.000  -0.000   0.000  -0.000
  161       -0.000   0.000   0.000  -0.000
  162       -0.000  -0.001   0.000  -0.001
  163       -0.000   0.000   0.000  -0.000
  164       -0.000   0.000   0.000  -0.000
  165       -0.000   0.000   0.000  -0.000
  166       -0.000   0.000   0.000  -0.000
  167       -0.000   0.000   0.000  -0.000
  168       -0.000  -0.001   0.000  -0.001
  169       -0.000   0.000   0.000  -0.000
  170       -0.000  -0.000   0.000  -0.000
  171       -0.001  -0.002   0.000  -0.003
  172       -0.001  -0.005   0.000  -0.005
  173       -0.000  -0.000   0.000  -0.000
  174       -0.001  -0.002   0.000  -0.003
  175       -0.001  -0.005   0.000  -0.005
  176       -0.000   0.000   0.000  -0.000
  177       -0.000  -0.001   0.000  -0.001
  178       -0.000   0.000   0.000  -0.000
  179       -0.000   0.000   0.000  -0.000
  180       -0.000   0.000   0.000   0.000
  181       -0.000   0.000   0.000  -0.000
  182       -0.000   0.000   0.000  -0.000
  183        0.000   0.000   0.000   0.000
  184       -0.000  -0.000   0.000  -0.000
  185       -0.000  -0.000   0.000  -0.000
  186       -0.001  -0.002   0.000  -0.003
  187       -0.001  -0.005   0.000  -0.005
  188       -0.000   0.000   0.000  -0.000
  189        0.000   0.000   0.000   0.000
  190       -0.000  -0.000   0.000  -0.000
  191        0.025   0.017   1.930   1.971
--------------------------------------------------
tot          0.003  -0.000   1.935   1.937
 

 total amount of memory used by VASP MPI-rank0   141872. kBytes
=======================================================================

   base      :      30000. kBytes
   nonlr-proj:       8622. kBytes
   fftplans  :       2267. kBytes
   grid      :       5113. kBytes
   one-center:        373. kBytes
   HF        :        129. kBytes
   wavefun   :       5829. kBytes
   fock_wrk  :      89539. kBytes
 
  
  
 General timing and accounting informations for this job:
 ========================================================
  
                  Total CPU time used (sec):     8588.483
                            User time (sec):     7427.628
                          System time (sec):     1160.855
                         Elapsed time (sec):     8775.910
  
                   Maximum memory used (kb):      693464.
                   Average memory used (kb):          N/A
  
                          Minor page faults:      2408038
                          Major page faults:            7
                 Voluntary context switches:        24780
