  191  191   40    2
  0.1195271E+02  0.1299435E-08  0.1299435E-08  0.1561204E-08  0.2000000E-15
  1.000000000000000E-004
  CAR 
 zno                                     
   1722      1   1344
 
  0.0000000E+00  0.0000000E+00  0.0000000E+00  0.1000000E+01
      1        -60.826295      -60.171738   1.000000   1.000000
      2        -35.235276      -34.560948   1.000000   1.000000
      3        -35.234181      -34.560636   1.000000   1.000000
      4        -34.871780      -33.808225   1.000000   1.000000
      5        -21.606019      -21.562198   1.000000   1.000000
      6        -21.192188      -21.137889   1.000000   1.000000
      7        -21.190597      -21.136331   1.000000   1.000000
      8        -20.834192      -20.823390   1.000000   1.000000
      9        -20.717398      -20.707111   1.000000   1.000000
     10        -20.625263      -20.612935   1.000000   1.000000
     11        -20.624545      -20.612232   1.000000   1.000000
     12        -20.611665      -20.604149   1.000000   1.000000
     13        -20.552353      -20.541194   1.000000   1.000000
     14        -20.552334      -20.541201   1.000000   1.000000
     15        -20.549859      -20.539887   1.000000   1.000000
     16        -20.519848      -20.510547   1.000000   1.000000
     17        -20.454631      -20.441127   1.000000   1.000000
     18        -20.454460      -20.440958   1.000000   1.000000
     19        -20.397709      -20.388827   1.000000   1.000000
     20        -20.371316      -20.361069   1.000000   1.000000
     21        -20.371170      -20.360849   1.000000   1.000000
     22        -20.369446      -20.359099   1.000000   1.000000
     23        -20.368965      -20.358994   1.000000   1.000000
     24        -20.334552      -20.325752   1.000000   1.000000
     25        -20.328998      -20.320787   1.000000   1.000000
     26        -20.328906      -20.320679   1.000000   1.000000
     27        -20.320491      -20.309467   1.000000   1.000000
     28        -20.306878      -20.298648   1.000000   1.000000
     29        -20.296189      -20.284781   1.000000   1.000000
     30        -20.286052      -20.278333   1.000000   1.000000
     31        -20.270170      -20.261309   1.000000   1.000000
     32        -20.267222      -20.257817   1.000000   1.000000
     33        -20.266652      -20.257244   1.000000   1.000000
     34        -20.264860      -20.256002   1.000000   1.000000
     35        -20.213975      -20.202075   1.000000   1.000000
     36        -20.213866      -20.201948   1.000000   1.000000
     37        -20.190728      -20.177641   1.000000   1.000000
     38        -20.190663      -20.177564   1.000000   1.000000
     39        -20.188915      -20.173536   1.000000   1.000000
     40        -20.173682      -20.164646   1.000000   1.000000
     41        -20.143391      -20.134415   1.000000   1.000000
     42        -20.143349      -20.134370   1.000000   1.000000
     43        -20.136289      -20.123338   1.000000   1.000000
     44        -20.135978      -20.123014   1.000000   1.000000
     45        -20.118235      -20.104665   1.000000   1.000000
     46        -20.107817      -20.098904   1.000000   1.000000
     47        -20.107599      -20.098722   1.000000   1.000000
     48        -20.084523      -20.077424   1.000000   1.000000
     49        -20.076669      -20.067329   1.000000   1.000000
     50        -20.057524      -20.050368   1.000000   1.000000
     51        -20.057438      -20.050249   1.000000   1.000000
     52        -20.048170      -20.039791   1.000000   1.000000
     53        -20.040882      -20.034670   1.000000   1.000000
     54        -20.040671      -20.034506   1.000000   1.000000
     55        -20.038593      -20.031485   1.000000   1.000000
     56        -20.021200      -20.012804   1.000000   1.000000
     57        -20.021055      -20.012665   1.000000   1.000000
     58        -20.010803      -20.002794   1.000000   1.000000
     59        -20.008836      -20.000208   1.000000   1.000000
     60        -20.008642      -19.999983   1.000000   1.000000
     61        -20.004338      -19.996435   1.000000   1.000000
     62        -20.004070      -19.996192   1.000000   1.000000
     63        -19.997373      -19.988653   1.000000   1.000000
     64        -19.990658      -19.983564   1.000000   1.000000
     65        -19.990455      -19.982067   1.000000   1.000000
     66        -19.990391      -19.982003   1.000000   1.000000
     67        -19.979358      -19.971223   1.000000   1.000000
     68        -19.971819      -19.964586   1.000000   1.000000
     69        -19.971650      -19.964428   1.000000   1.000000
     70        -19.957703      -19.949818   1.000000   1.000000
     71        -19.924098      -19.917209   1.000000   1.000000
     72        -19.923987      -19.917201   1.000000   1.000000
     73        -19.921481      -19.913865   1.000000   1.000000
     74        -19.921331      -19.913564   1.000000   1.000000
     75        -19.919069      -19.911900   1.000000   1.000000
     76        -19.909494      -19.901282   1.000000   1.000000
     77        -19.909164      -19.900954   1.000000   1.000000
     78        -19.905734      -19.897940   1.000000   1.000000
     79        -19.897477      -19.889253   1.000000   1.000000
     80        -19.889560      -19.882183   1.000000   1.000000
     81        -19.889470      -19.882094   1.000000   1.000000
     82        -19.884159      -19.876108   1.000000   1.000000
     83        -19.866506      -19.858615   1.000000   1.000000
     84        -19.866255      -19.858371   1.000000   1.000000
     85        -19.862958      -19.855356   1.000000   1.000000
     86        -19.862814      -19.855206   1.000000   1.000000
     87        -19.851370      -19.843514   1.000000   1.000000
     88        -19.849624      -19.841635   1.000000   1.000000
     89        -19.849498      -19.841511   1.000000   1.000000
     90        -19.847325      -19.839605   1.000000   1.000000
     91        -19.807869      -19.800430   1.000000   1.000000
     92        -19.797872      -19.791099   1.000000   1.000000
     93        -19.797692      -19.790910   1.000000   1.000000
     94        -19.784881      -19.777640   1.000000   1.000000
     95        -19.769199      -19.761735   1.000000   1.000000
     96        -19.768624      -19.761162   1.000000   1.000000
     97        -19.764106      -19.756634   1.000000   1.000000
     98        -19.763854      -19.756383   1.000000   1.000000
     99        -19.761681      -19.754171   1.000000   1.000000
    100         -8.196388       -8.190593   1.000000   1.000000
    101         -8.195879       -8.190127   1.000000   1.000000
    102         -8.176735       -8.164647   1.000000   1.000000
    103         -8.167207       -8.146275   1.000000   1.000000
    104         -8.167095       -8.145995   1.000000   1.000000
    105         -8.131329       -8.116357   1.000000   1.000000
    106         -8.115109       -8.106122   1.000000   1.000000
    107         -8.114230       -8.105827   1.000000   1.000000
    108         -8.111996       -8.105034   1.000000   1.000000
    109         -8.077671       -8.073497   1.000000   1.000000
    110         -8.077497       -8.073101   1.000000   1.000000
    111         -8.075246       -8.068127   1.000000   1.000000
    112         -8.075054       -8.067716   1.000000   1.000000
    113         -8.045591       -8.043945   1.000000   1.000000
    114         -8.041777       -8.037175   1.000000   1.000000
    115         -8.026368       -8.019092   1.000000   1.000000
    116         -8.026224       -8.019066   1.000000   1.000000
    117         -8.016470       -8.007825   1.000000   1.000000
    118         -8.016218       -8.007730   1.000000   1.000000
    119         -7.997568       -7.992638   1.000000   1.000000
    120         -7.990302       -7.985669   1.000000   1.000000
    121         -7.989677       -7.985041   1.000000   1.000000
    122         -7.984097       -7.975345   1.000000   1.000000
    123         -7.960534       -7.953936   1.000000   1.000000
    124         -7.960208       -7.953566   1.000000   1.000000
    125         -7.959638       -7.953467   1.000000   1.000000
    126         -7.944814       -7.935453   1.000000   1.000000
    127         -7.930292       -7.921559   1.000000   1.000000
    128         -7.913307       -7.906343   1.000000   1.000000
    129         -7.913178       -7.906214   1.000000   1.000000
    130         -7.900254       -7.897267   1.000000   1.000000
    131         -7.899192       -7.887902   1.000000   1.000000
    132         -7.899192       -7.887829   1.000000   1.000000
    133         -7.868670       -7.862316   1.000000   1.000000
    134         -7.868656       -7.862266   1.000000   1.000000
    135         -7.849812       -7.847711   1.000000   1.000000
    136         -7.843688       -7.838963   1.000000   1.000000
    137         -7.843379       -7.838680   1.000000   1.000000
    138         -7.833765       -7.830918   1.000000   1.000000
    139         -7.820622       -7.816664   1.000000   1.000000
    140         -7.811312       -7.806141   1.000000   1.000000
    141         -7.811203       -7.806018   1.000000   1.000000
    142         -7.807019       -7.805515   1.000000   1.000000
    143         -7.804829       -7.799232   1.000000   1.000000
    144         -7.804650       -7.799055   1.000000   1.000000
    145         -7.794428       -7.790175   1.000000   1.000000
    146         -7.770867       -7.765884   1.000000   1.000000
    147         -7.770871       -7.765869   1.000000   1.000000
    148         -7.758379       -7.754885   1.000000   1.000000
    149         -7.758201       -7.754694   1.000000   1.000000
    150         -7.755926       -7.751323   1.000000   1.000000
    151         -7.755899       -7.751323   1.000000   1.000000
    152         -7.753147       -7.750520   1.000000   1.000000
    153         -7.744631       -7.740252   1.000000   1.000000
    154         -7.739891       -7.736374   1.000000   1.000000
    155         -7.739822       -7.736147   1.000000   1.000000
    156         -7.738427       -7.736072   1.000000   1.000000
    157         -7.737800       -7.733634   1.000000   1.000000
    158         -7.726638       -7.723825   1.000000   1.000000
    159         -7.726643       -7.723831   1.000000   1.000000
    160         -7.719651       -7.715436   1.000000   1.000000
    161         -7.707497       -7.704107   1.000000   1.000000
    162         -7.707372       -7.703972   1.000000   1.000000
    163         -7.706051       -7.703748   1.000000   1.000000
    164         -7.701150       -7.698160   1.000000   1.000000
    165         -7.701123       -7.698131   1.000000   1.000000
    166         -7.697088       -7.692812   1.000000   1.000000
    167         -7.696366       -7.692761   1.000000   1.000000
    168         -7.696314       -7.692735   1.000000   1.000000
    169         -7.690934       -7.687568   1.000000   1.000000
    170         -7.680402       -7.677070   1.000000   1.000000
    171         -7.676266       -7.673142   1.000000   1.000000
    172         -7.676175       -7.673046   1.000000   1.000000
    173         -7.671155       -7.667917   1.000000   1.000000
    174         -7.670981       -7.667736   1.000000   1.000000
    175         -7.669585       -7.665241   1.000000   1.000000
    176         -7.659771       -7.656757   1.000000   1.000000
    177         -7.659577       -7.656575   1.000000   1.000000
    178         -7.648637       -7.645352   1.000000   1.000000
    179         -7.648411       -7.645130   1.000000   1.000000
    180         -7.646835       -7.642814   1.000000   1.000000
    181         -7.646745       -7.642733   1.000000   1.000000
    182         -7.642821       -7.639024   1.000000   1.000000
    183         -7.635003       -7.632022   1.000000   1.000000
    184         -7.634976       -7.632025   1.000000   1.000000
    185         -7.633057       -7.628683   1.000000   1.000000
    186         -7.626436       -7.624245   1.000000   1.000000
    187         -7.621770       -7.618156   1.000000   1.000000
    188         -7.621660       -7.618038   1.000000   1.000000
    189         -7.609034       -7.605797   1.000000   1.000000
    190         -7.608078       -7.605706   1.000000   1.000000
    191         -7.607982       -7.604841   1.000000   1.000000
    192         -7.597988       -7.595328   1.000000   1.000000
    193         -7.597978       -7.595326   1.000000   1.000000
    194         -7.587412       -7.584821   1.000000   1.000000
    195         -7.586135       -7.584769   1.000000   1.000000
    196         -7.586080       -7.583413   1.000000   1.000000
    197         -7.579803       -7.576958   1.000000   1.000000
    198         -7.579217       -7.576608   1.000000   1.000000
    199         -7.579152       -7.576561   1.000000   1.000000
    200         -7.574785       -7.573797   1.000000   1.000000
    201         -7.570789       -7.568172   1.000000   1.000000
    202         -7.570690       -7.568081   1.000000   1.000000
    203         -7.566339       -7.562916   1.000000   1.000000
    204         -7.566306       -7.562894   1.000000   1.000000
    205         -7.565660       -7.562159   1.000000   1.000000
    206         -7.561703       -7.560270   1.000000   1.000000
    207         -7.555489       -7.553501   1.000000   1.000000
    208         -7.555467       -7.553458   1.000000   1.000000
    209         -7.553039       -7.551006   1.000000   1.000000
    210         -7.552077       -7.549833   1.000000   1.000000
    211         -7.551993       -7.549768   1.000000   1.000000
    212         -7.550118       -7.548318   1.000000   1.000000
    213         -7.549980       -7.548195   1.000000   1.000000
    214         -7.549430       -7.546708   1.000000   1.000000
    215         -7.541258       -7.536451   1.000000   1.000000
    216         -7.531777       -7.529301   1.000000   1.000000
    217         -7.531677       -7.529202   1.000000   1.000000
    218         -7.528134       -7.526209   1.000000   1.000000
    219         -7.525143       -7.523112   1.000000   1.000000
    220         -7.514833       -7.512072   1.000000   1.000000
    221         -7.514724       -7.511937   1.000000   1.000000
    222         -7.511552       -7.509111   1.000000   1.000000
    223         -7.511536       -7.509104   1.000000   1.000000
    224         -7.504994       -7.502358   1.000000   1.000000
    225         -7.502132       -7.500513   1.000000   1.000000
    226         -7.501842       -7.500207   1.000000   1.000000
    227         -7.500274       -7.495154   1.000000   1.000000
    228         -7.496110       -7.494208   1.000000   1.000000
    229         -7.496068       -7.494161   1.000000   1.000000
    230         -7.487596       -7.486461   1.000000   1.000000
    231         -7.485164       -7.482843   1.000000   1.000000
    232         -7.480225       -7.478986   1.000000   1.000000
    233         -7.480165       -7.478925   1.000000   1.000000
    234         -7.475939       -7.472212   1.000000   1.000000
    235         -7.474396       -7.472176   1.000000   1.000000
    236         -7.474362       -7.470379   1.000000   1.000000
    237         -7.466373       -7.465041   1.000000   1.000000
    238         -7.466318       -7.464995   1.000000   1.000000
    239         -7.464610       -7.461899   1.000000   1.000000
    240         -7.460443       -7.458914   1.000000   1.000000
    241         -7.457475       -7.454489   1.000000   1.000000
    242         -7.457429       -7.454441   1.000000   1.000000
    243         -7.441224       -7.440036   1.000000   1.000000
    244         -7.441175       -7.439981   1.000000   1.000000
    245         -7.439474       -7.437623   1.000000   1.000000
    246         -7.438012       -7.436857   1.000000   1.000000
    247         -7.433951       -7.432630   1.000000   1.000000
    248         -7.433910       -7.431643   1.000000   1.000000
    249         -7.433687       -7.431628   1.000000   1.000000
    250         -7.423558       -7.421681   1.000000   1.000000
    251         -7.423453       -7.421584   1.000000   1.000000
    252         -7.417728       -7.415085   1.000000   1.000000
    253         -7.415818       -7.413936   1.000000   1.000000
    254         -7.415821       -7.413925   1.000000   1.000000
    255         -7.408027       -7.405184   1.000000   1.000000
    256         -7.403178       -7.402192   1.000000   1.000000
    257         -7.396623       -7.394572   1.000000   1.000000
    258         -7.396583       -7.394499   1.000000   1.000000
    259         -7.394091       -7.392663   1.000000   1.000000
    260         -7.394001       -7.392542   1.000000   1.000000
    261         -7.376860       -7.376081   1.000000   1.000000
    262         -7.373288       -7.371784   1.000000   1.000000
    263         -7.373192       -7.371685   1.000000   1.000000
    264         -7.369911       -7.368131   1.000000   1.000000
    265         -7.369841       -7.368060   1.000000   1.000000
    266         -7.363881       -7.361859   1.000000   1.000000
    267         -7.359964       -7.359377   1.000000   1.000000
    268         -7.355525       -7.353531   1.000000   1.000000
    269         -7.355522       -7.353521   1.000000   1.000000
    270         -7.349488       -7.347616   1.000000   1.000000
    271         -7.349472       -7.347604   1.000000   1.000000
    272         -7.344999       -7.342935   1.000000   1.000000
    273         -7.344011       -7.341552   1.000000   1.000000
    274         -7.341881       -7.340172   1.000000   1.000000
    275         -7.341852       -7.340135   1.000000   1.000000
    276         -7.336914       -7.335427   1.000000   1.000000
    277         -7.336845       -7.335356   1.000000   1.000000
    278         -7.334835       -7.334122   1.000000   1.000000
    279         -7.328754       -7.326895   1.000000   1.000000
    280         -7.327553       -7.325988   1.000000   1.000000
    281         -7.327344       -7.325592   1.000000   1.000000
    282         -7.327160       -7.325414   1.000000   1.000000
    283         -7.321500       -7.319917   1.000000   1.000000
    284         -7.321314       -7.319722   1.000000   1.000000
    285         -7.310526       -7.308211   1.000000   1.000000
    286         -7.310474       -7.308159   1.000000   1.000000
    287         -7.308996       -7.307162   1.000000   1.000000
    288         -7.308839       -7.307024   1.000000   1.000000
    289         -7.308260       -7.306522   1.000000   1.000000
    290         -7.304160       -7.301374   1.000000   1.000000
    291         -7.302035       -7.300308   1.000000   1.000000
    292         -7.301969       -7.300234   1.000000   1.000000
    293         -7.296393       -7.293116   1.000000   1.000000
    294         -7.291806       -7.289488   1.000000   1.000000
    295         -7.291787       -7.289472   1.000000   1.000000
    296         -7.284148       -7.279867   1.000000   1.000000
    297         -7.284050       -7.279768   1.000000   1.000000
    298         -7.279139       -7.277398   1.000000   1.000000
    299         -7.275916       -7.274964   1.000000   1.000000
    300         -7.271307       -7.268938   1.000000   1.000000
    301         -7.271206       -7.268836   1.000000   1.000000
    302         -7.269421       -7.266837   1.000000   1.000000
    303         -7.257291       -7.256667   1.000000   1.000000
    304         -7.248568       -7.246396   1.000000   1.000000
    305         -7.244775       -7.242579   1.000000   1.000000
    306         -7.244750       -7.242535   1.000000   1.000000
    307         -7.241879       -7.240863   1.000000   1.000000
    308         -7.241821       -7.240793   1.000000   1.000000
    309         -7.239337       -7.237357   1.000000   1.000000
    310         -7.239325       -7.237343   1.000000   1.000000
    311         -7.231007       -7.228575   1.000000   1.000000
    312         -7.225687       -7.223427   1.000000   1.000000
    313         -7.225639       -7.223362   1.000000   1.000000
    314         -7.218124       -7.216985   1.000000   1.000000
    315         -7.217960       -7.216802   1.000000   1.000000
    316         -7.216115       -7.215304   1.000000   1.000000
    317         -7.208471       -7.206902   1.000000   1.000000
    318         -7.208131       -7.206615   1.000000   1.000000
    319         -7.208068       -7.206560   1.000000   1.000000
    320         -7.202660       -7.200667   1.000000   1.000000
    321         -7.196947       -7.195793   1.000000   1.000000
    322         -7.196916       -7.195764   1.000000   1.000000
    323         -7.195152       -7.193649   1.000000   1.000000
    324         -7.187598       -7.185678   1.000000   1.000000
    325         -7.187492       -7.185578   1.000000   1.000000
    326         -7.171771       -7.170170   1.000000   1.000000
    327         -7.171424       -7.168842   1.000000   1.000000
    328         -7.171357       -7.168770   1.000000   1.000000
    329         -7.170223       -7.168052   1.000000   1.000000
    330         -7.162459       -7.160556   1.000000   1.000000
    331         -7.162424       -7.160511   1.000000   1.000000
    332         -7.152943       -7.149935   1.000000   1.000000
    333         -7.140546       -7.139905   1.000000   1.000000
    334         -7.139133       -7.137148   1.000000   1.000000
    335         -7.139028       -7.137027   1.000000   1.000000
    336         -7.136652       -7.135495   1.000000   1.000000
    337         -7.130960       -7.129441   1.000000   1.000000
    338         -7.129813       -7.126846   1.000000   1.000000
    339         -7.129794       -7.126836   1.000000   1.000000
    340         -7.121429       -7.119343   1.000000   1.000000
    341         -7.121387       -7.119300   1.000000   1.000000
    342         -7.106228       -7.105043   1.000000   1.000000
    343         -7.106121       -7.104930   1.000000   1.000000
    344         -7.090208       -7.088443   1.000000   1.000000
    345         -7.088418       -7.087737   1.000000   1.000000
    346         -7.083718       -7.081501   1.000000   1.000000
    347         -7.083662       -7.081461   1.000000   1.000000
    348         -7.079286       -7.077503   1.000000   1.000000
    349         -7.079260       -7.077473   1.000000   1.000000
    350         -7.077473       -7.076091   1.000000   1.000000
    351         -7.072747       -7.071854   1.000000   1.000000
    352         -7.072727       -7.071829   1.000000   1.000000
    353         -7.072177       -7.071061   1.000000   1.000000
    354         -7.063649       -7.062284   1.000000   1.000000
    355         -7.063464       -7.062095   1.000000   1.000000
    356         -7.044061       -7.042338   1.000000   1.000000
    357         -7.043998       -7.042273   1.000000   1.000000
    358         -7.041364       -7.039714   1.000000   1.000000
    359         -7.039041       -7.037777   1.000000   1.000000
    360         -7.038945       -7.037600   1.000000   1.000000
    361         -7.038858       -7.037439   1.000000   1.000000
    362         -7.035810       -7.032632   1.000000   1.000000
    363         -7.035672       -7.032512   1.000000   1.000000
    364         -7.016155       -7.015165   1.000000   1.000000
    365         -7.000185       -6.998774   1.000000   1.000000
    366         -6.997618       -6.995708   1.000000   1.000000
    367         -6.997593       -6.995683   1.000000   1.000000
    368         -6.994823       -6.992639   1.000000   1.000000
    369         -6.993269       -6.991068   1.000000   1.000000
    370         -6.993255       -6.991044   1.000000   1.000000
    371         -6.976391       -6.973791   1.000000   1.000000
    372         -6.972903       -6.971884   1.000000   1.000000
    373         -6.972840       -6.971822   1.000000   1.000000
    374         -6.968900       -6.966776   1.000000   1.000000
    375         -6.959210       -6.956931   1.000000   1.000000
    376         -6.959198       -6.956908   1.000000   1.000000
    377         -6.955693       -6.952506   1.000000   1.000000
    378         -6.952804       -6.951680   1.000000   1.000000
    379         -6.940032       -6.938451   1.000000   1.000000
    380         -6.939991       -6.938408   1.000000   1.000000
    381         -6.938613       -6.936784   1.000000   1.000000
    382         -6.933698       -6.932355   1.000000   1.000000
    383         -6.933648       -6.932309   1.000000   1.000000
    384         -6.916830       -6.912916   1.000000   1.000000
    385         -6.916738       -6.912798   1.000000   1.000000
    386         -6.911538       -6.910639   1.000000   1.000000
    387         -6.907511       -6.904191   1.000000   1.000000
    388         -6.904424       -6.903357   1.000000   1.000000
    389         -6.904427       -6.903362   1.000000   1.000000
    390         -6.884294       -6.883525   1.000000   1.000000
    391         -6.879531       -6.878685   1.000000   1.000000
    392         -6.879296       -6.878467   1.000000   1.000000
    393         -6.875659       -6.874424   1.000000   1.000000
    394         -6.875438       -6.874188   1.000000   1.000000
    395         -6.871887       -6.871387   1.000000   1.000000
    396         -6.867448       -6.863959   1.000000   1.000000
    397         -6.867422       -6.863935   1.000000   1.000000
    398         -6.846790       -6.845127   1.000000   1.000000
    399         -6.843468       -6.841964   1.000000   1.000000
    400         -6.843443       -6.841941   1.000000   1.000000
    401         -6.835745       -6.833969   1.000000   1.000000
    402         -6.827996       -6.825648   1.000000   1.000000
    403         -6.825963       -6.824619   1.000000   1.000000
    404         -6.821807       -6.820114   1.000000   1.000000
    405         -6.821780       -6.820093   1.000000   1.000000
    406         -6.810914       -6.808623   1.000000   1.000000
    407         -6.805052       -6.802821   1.000000   1.000000
    408         -6.804960       -6.802715   1.000000   1.000000
    409         -6.802864       -6.801384   1.000000   1.000000
    410         -6.802651       -6.801190   1.000000   1.000000
    411         -6.786118       -6.783945   1.000000   1.000000
    412         -6.773875       -6.772348   1.000000   1.000000
    413         -6.773707       -6.772200   1.000000   1.000000
    414         -6.771766       -6.769977   1.000000   1.000000
    415         -6.771556       -6.769752   1.000000   1.000000
    416         -6.769451       -6.768172   1.000000   1.000000
    417         -6.758930       -6.757560   1.000000   1.000000
    418         -6.758874       -6.757503   1.000000   1.000000
    419         -6.757833       -6.755582   1.000000   1.000000
    420         -6.752644       -6.751471   1.000000   1.000000
    421         -6.752516       -6.751350   1.000000   1.000000
    422         -6.743277       -6.742124   1.000000   1.000000
    423         -6.737986       -6.731997   1.000000   1.000000
    424         -6.733509       -6.731992   1.000000   1.000000
    425         -6.733416       -6.731897   1.000000   1.000000
    426         -6.723133       -6.722287   1.000000   1.000000
    427         -6.714368       -6.713150   1.000000   1.000000
    428         -6.714328       -6.713111   1.000000   1.000000
    429         -6.708595       -6.707060   1.000000   1.000000
    430         -6.707113       -6.706122   1.000000   1.000000
    431         -6.704147       -6.702691   1.000000   1.000000
    432         -6.704139       -6.702695   1.000000   1.000000
    433         -6.702424       -6.701281   1.000000   1.000000
    434         -6.702291       -6.701163   1.000000   1.000000
    435         -6.688551       -6.687031   1.000000   1.000000
    436         -6.688313       -6.687019   1.000000   1.000000
    437         -6.688276       -6.685991   1.000000   1.000000
    438         -6.676037       -6.674667   1.000000   1.000000
    439         -6.675912       -6.674558   1.000000   1.000000
    440         -6.667274       -6.665455   1.000000   1.000000
    441         -6.667112       -6.665309   1.000000   1.000000
    442         -6.665377       -6.663454   1.000000   1.000000
    443         -6.663930       -6.663088   1.000000   1.000000
    444         -6.657971       -6.656449   1.000000   1.000000
    445         -6.655342       -6.653880   1.000000   1.000000
    446         -6.655318       -6.653866   1.000000   1.000000
    447         -6.654006       -6.653220   1.000000   1.000000
    448         -6.652791       -6.651705   1.000000   1.000000
    449         -6.652598       -6.651520   1.000000   1.000000
    450         -6.649232       -6.648342   1.000000   1.000000
    451         -6.644903       -6.644026   1.000000   1.000000
    452         -6.644894       -6.644019   1.000000   1.000000
    453         -6.640560       -6.639602   1.000000   1.000000
    454         -6.638018       -6.637010   1.000000   1.000000
    455         -6.637825       -6.636825   1.000000   1.000000
    456         -6.636115       -6.634906   1.000000   1.000000
    457         -6.634315       -6.633099   1.000000   1.000000
    458         -6.634130       -6.632908   1.000000   1.000000
    459         -6.630000       -6.628997   1.000000   1.000000
    460         -6.623278       -6.622209   1.000000   1.000000
    461         -6.623100       -6.622032   1.000000   1.000000
    462         -6.619800       -6.617978   1.000000   1.000000
    463         -6.613471       -6.612676   1.000000   1.000000
    464         -6.598374       -6.597575   1.000000   1.000000