       N       E                     dE             d eps       ncg     rms          ort
SDA:   1    -0.122088371696E+04   -0.12209E+04   -0.24154E-01  1344   0.805E-01 0.000E+00
DMP:   2    -0.122090564677E+04   -0.21930E-01   -0.21867E-01  1344   0.405E-01 0.568E-01
DMP:   3    -0.122092235245E+04   -0.16706E-01   -0.91372E-02  1344   0.100E-01 0.358E-01
DMP:   4    -0.122092762879E+04   -0.52763E-02   -0.96720E-03  1344   0.406E-03 0.494E-02
DMP:   5    -0.122092711735E+04    0.51144E-03    0.72884E-03  1344   0.135E-02-0.664E-02
DMP:   6    -0.122092616785E+04    0.94950E-03   -0.25149E-03  1344   0.309E-02-0.395E-02
DMP:   7    -0.122092640295E+04   -0.23510E-03   -0.91609E-03  1344   0.265E-02 0.714E-03
DMP:   8    -0.122092717317E+04   -0.77022E-03   -0.72173E-03  1344   0.123E-02 0.205E-02
DMP:   9    -0.122092769827E+04   -0.52510E-03   -0.27268E-03  1344   0.276E-03 0.111E-02
DMP:  10    -0.122092784401E+04   -0.14575E-03   -0.16332E-04  1344   0.117E-04 0.750E-04
DMP:  11    -0.122092781634E+04    0.27673E-04    0.21972E-04  1344   0.637E-04-0.240E-03
DMP:  12    -0.122092778886E+04    0.27477E-04   -0.15026E-04  1344   0.114E-03-0.112E-03
DMP:  13    -0.122092780239E+04   -0.13530E-04   -0.33508E-04  1344   0.885E-04 0.408E-04
DMP:  14    -0.122092782975E+04   -0.27352E-04   -0.23701E-04  1344   0.382E-04 0.715E-04
DMP:  15    -0.122092784650E+04   -0.16759E-04   -0.79545E-05  1344   0.761E-05 0.332E-04
DMP:  16    -0.122092785036E+04   -0.38565E-05   -0.87427E-07  1344   0.692E-06-0.702E-06
DMP:  17    -0.122092784914E+04    0.12183E-05    0.55038E-06  1344   0.298E-05-0.844E-05
DMP:  18    -0.122092784844E+04    0.70047E-06   -0.78558E-06  1344   0.424E-05-0.285E-05
   1 F= -.12209278E+04 E0= -.12209278E+04  d E =-.122093E+04  mag=     2.0000
       N       E                     dE             d eps       ncg     rms          ort
SDA:   1    -0.122092651581E+04    0.13333E-02   -0.98717E-03  1344   0.329E-02 0.000E+00
DMP:   2    -0.122092729795E+04   -0.78214E-03   -0.70792E-03  1344   0.126E-02 0.192E-02
DMP:   3    -0.122092776479E+04   -0.46683E-03   -0.23474E-03  1344   0.354E-03 0.751E-03
DMP:   4    -0.122092788096E+04   -0.11617E-03   -0.55694E-04  1344   0.190E-03-0.846E-05
DMP:   5    -0.122092788852E+04   -0.75567E-05   -0.20004E-04  1344   0.143E-03-0.134E-03
DMP:   6    -0.122092788996E+04   -0.14419E-05   -0.26359E-04  1344   0.119E-03-0.544E-04
DMP:   7    -0.122092790564E+04   -0.15676E-04   -0.25906E-04  1344   0.759E-04 0.184E-04
DMP:   8    -0.122092792330E+04   -0.17667E-04   -0.17660E-04  1344   0.409E-04 0.316E-04
DMP:   9    -0.122092793512E+04   -0.11820E-04   -0.87932E-05  1344   0.184E-04 0.191E-04
DMP:  10    -0.122092794036E+04   -0.52345E-05   -0.33253E-05  1344   0.844E-05 0.464E-05
DMP:  11    -0.122092794197E+04   -0.16172E-05   -0.15220E-05  1344   0.550E-05-0.756E-06
DMP:  12    -0.122092794265E+04   -0.67579E-06   -0.93563E-06  1344   0.342E-05-0.535E-06
   2 F= -.12209279E+04 E0= -.12209279E+04  d E =-.942082E-04  mag=     2.0000
       N       E                     dE             d eps       ncg     rms          ort
SDA:   1    -0.122092777750E+04    0.16447E-03   -0.13214E-03  1344   0.440E-03 0.000E+00
DMP:   2    -0.122092787871E+04   -0.10121E-03   -0.84779E-04  1344   0.149E-03 0.234E-03
DMP:   3    -0.122092793257E+04   -0.53862E-04   -0.29815E-04  1344   0.558E-04 0.765E-04
DMP:   4    -0.122092794800E+04   -0.15433E-04   -0.94529E-05  1344   0.293E-04 0.383E-05
DMP:   5    -0.122092795071E+04   -0.27116E-05   -0.37637E-05  1344   0.202E-04-0.134E-04
DMP:   6    -0.122092795185E+04   -0.11368E-05   -0.35633E-05  1344   0.149E-04-0.530E-05
DMP:   7    -0.122092795387E+04   -0.20236E-05   -0.29263E-05  1344   0.903E-05 0.127E-05
DMP:   8    -0.122092795574E+04   -0.18712E-05   -0.19961E-05  1344   0.514E-05 0.265E-05
DMP:   9    -0.122092795698E+04   -0.12341E-05   -0.10046E-05  1344   0.236E-05 0.173E-05
DMP:  10    -0.122092795754E+04   -0.56133E-06   -0.50966E-06  1344   0.139E-05 0.535E-06
   3 F= -.12209280E+04 E0= -.12209280E+04  d E =-.148893E-04  mag=     2.0000
