 vasp.6.4.2 20Jul23 (build Oct 07 2023 16:32:06) gamma-only                     
  
 executed on             bridges2 date 2023.12.29  14:15:36
 running  768 mpi-ranks, on    6 nodes
 distrk:  each k-point on  384 cores,    2 groups
 distr:  one band on NCORE=   4 cores,   96 groups


--------------------------------------------------------------------------------------------------------


 INCAR:
   SYSTEM = zno
   PREC = Normal
   ISTART = 1
   ICHARG = 1
   ISPIN = 2
   MAGMOM = 76*0.0 1*1.0 2*0.0 1*1.0 11*0.0 1*1.0 78*0.0 1*1.0 2*0.0 1*1.0 11*0.0 1*1.0 4*0.0 1*1.4
   FERWE = 860*1 1*0.5 1*0.5 1*1 481*0
   FERDO = 860*1 484*0
   NCORE = 4
   KPAR = 2
   NELECT = 1722
   ENCUT = 400
   NELM = 1500
   NELMIN = 4
   EDIFF = 1E-06
   LREAL = Auto
   EDIFFG = -1E-02
   NSW = 40
   IBRION = 1
   ISIF = 2
   ISYM = 3
   POTIM = 0.2
   ISMEAR = -2
   NBANDS = 1344
   LWAVE = T
   LCHARG = T
   LVHAR = T
   LVTOT = F
   LELF = F
   LORBIT = 11
   ALGO = Damped
   TIME = 0.3
   LHFCALC = T
   HFSCREEN = 0.2
   AEXX = 0.375
   GGA = PE
   LDIAG = .FALSE.

 POTCAR:    PAW_PBE Zn 06Sep2000                  
 POTCAR:    PAW_PBE O 08Apr2002                   
 POTCAR:    PAW_PBE Nb_sv 25May2007               
 -----------------------------------------------------------------------------
|                                                                             |
|           W    W    AA    RRRRR   N    N  II  N    N   GGGG   !!!           |
|           W    W   A  A   R    R  NN   N  II  NN   N  G    G  !!!           |
|           W    W  A    A  R    R  N N  N  II  N N  N  G       !!!           |
|           W WW W  AAAAAA  RRRRR   N  N N  II  N  N N  G  GGG   !            |
|           WW  WW  A    A  R   R   N   NN  II  N   NN  G    G                |
|           W    W  A    A  R    R  N    N  II  N    N   GGGG   !!!           |
|                                                                             |
|     For optimal performance we recommend to set                             |
|       NCORE = 2 up to number-of-cores-per-socket                            |
|     NCORE specifies how many cores store one orbital (NPAR=cpu/NCORE).      |
|     This setting can greatly improve the performance of VASP for DFT.       |
|     The default, NCORE=1 might be grossly inefficient on modern             |
|     multi-core architectures or massively parallel machines. Do your        |
|     own testing! More info at https://www.vasp.at/wiki/index.php/NCORE      |
|     Unfortunately you need to use the default for GW and RPA                |
|     calculations (for HF NCORE is supported but not extensively tested      |
|     yet).                                                                   |
|                                                                             |
 -----------------------------------------------------------------------------

 POTCAR:    PAW_PBE Zn 06Sep2000                  
   SHA256 =  501fddbd8274dd8e9725d4f3de27861d7f1e553a7e18441bc79fed8f346e7f23 Zn/POTCAR             
   COPYR  = (c) Copyright 06Sep2000 Georg Kresse                                                    
   COPYR  = This file is part of the software VASP. Any use, copying, and all other rights are regul
   COPYR  = If you do not have a valid VASP license, you may not use, copy or distribute this file. 
   VRHFIN =Zn: d10 p2                                                                               
   LEXCH  = PE                                                                                      
   EATOM  =  1748.8345 eV,  128.5357 Ry                                                             
                                                                                                    
   TITEL  = PAW_PBE Zn 06Sep2000                                                                    
   LULTRA =        F    use ultrasoft PP ?                                                          
   IUNSCR =        1    unscreen: 0-lin 1-nonlin 2-no                                               
   RPACOR =    2.000    partial core radius                                                         
   POMASS =   65.390; ZVAL   =   12.000    mass and valenz                                          
   RCORE  =    2.300    outmost cutoff radius                                                       
   RWIGS  =    2.400; RWIGS  =    1.270    wigner-seitz radius (au A)                               
   ENMAX  =  276.723; ENMIN  =  207.542 eV                                                          
   RCLOC  =    1.828    cutoff for local pot                                                        
   LCOR   =        T    correct aug charges                                                         
   LPAW   =        T    paw PP                                                                      
   EAUG   =  575.892                                                                                
   DEXC   =    0.000                                                                                
   RMAX   =    2.347    core radius for proj-oper                                                   
   RAUG   =    1.300    factor for augmentation sphere                                              
   RDEP   =    2.324    radius for radial grids                                                     
   RDEPT  =    1.788    core radius for aug-charge                                                  
                                                                                                    
   Atomic configuration                                                                             
    9 entries                                                                                       
     n  l   j            E        occ.                                                              
     1  0  0.50     -9524.6913   2.0000                                                             
     2  0  0.50     -1158.1882   2.0000                                                             
     2  1  1.50     -1003.8506   6.0000                                                             
     3  0  0.50      -129.2194   2.0000                                                             
     3  1  1.50       -83.3890   6.0000                                                             
     3  2  2.50       -10.1410  10.0000                                                             
     4  0  0.50        -5.9785   2.0000                                                             
     4  1  0.50        -4.0817   0.0000                                                             
     4  3  2.50        -1.3606   0.0000                                                             
   Description                                                                                      
     l       E           TYP  RCUT    TYP  RCUT                                                     
     2    -10.1410010     23  2.300                                                                 
     2    -11.5015836     23  2.300                                                                 
     0     -5.9785163     23  2.300                                                                 
     0      1.1858015     23  2.300                                                                 
     1     -2.7211652     23  2.300                                                                 
     1     13.2444212     23  2.300                                                                 
  local pseudopotential read in
  partial core-charges read in
  partial kinetic energy density read in
  atomic valenz-charges read in
  non local Contribution for L=           2  read in
    real space projection operators read in
  non local Contribution for L=           2  read in
    real space projection operators read in
  non local Contribution for L=           0  read in
    real space projection operators read in
  non local Contribution for L=           0  read in
    real space projection operators read in
  non local Contribution for L=           1  read in
    real space projection operators read in
  non local Contribution for L=           1  read in
    real space projection operators read in
    PAW grid and wavefunctions read in
 
   number of l-projection  operators is LMAX  =           6
   number of lm-projection operators is LMMAX =          18
 
 POTCAR:    PAW_PBE O 08Apr2002                   
   SHA256 =  818f92134a0a090dccd8ba1447fa70422a3b330e708bb4f08108d8ae51209ddf O/POTCAR              
   COPYR  = (c) Copyright 08Apr2002 Georg Kresse                                                    
   COPYR  = This file is part of the software VASP. Any use, copying, and all other rights are regul
   COPYR  = If you do not have a valid VASP license, you may not use, copy or distribute this file. 
   VRHFIN =O: s2p4                                                                                  
   LEXCH  = PE                                                                                      
   EATOM  =   432.3788 eV,   31.7789 Ry                                                             
                                                                                                    
   TITEL  = PAW_PBE O 08Apr2002                                                                     
   LULTRA =        F    use ultrasoft PP ?                                                          
   IUNSCR =        1    unscreen: 0-lin 1-nonlin 2-no                                               
   RPACOR =    1.200    partial core radius                                                         
   POMASS =   16.000; ZVAL   =    6.000    mass and valenz                                          
   RCORE  =    1.520    outmost cutoff radius                                                       
   RWIGS  =    1.550; RWIGS  =    0.820    wigner-seitz radius (au A)                               
   ENMAX  =  400.000; ENMIN  =  300.000 eV                                                          
   ICORE  =        2    local potential                                                             
   LCOR   =        T    correct aug charges                                                         
   LPAW   =        T    paw PP                                                                      
   EAUG   =  605.392                                                                                
   DEXC   =    0.000                                                                                
   RMAX   =    1.553    core radius for proj-oper                                                   
   RAUG   =    1.300    factor for augmentation sphere                                              
   RDEP   =    1.550    radius for radial grids                                                     
   RDEPT  =    1.329    core radius for aug-charge                                                  
                                                                                                    
   Atomic configuration                                                                             
    4 entries                                                                                       
     n  l   j            E        occ.                                                              
     1  0  0.50      -514.6923   2.0000                                                             
     2  0  0.50       -23.9615   2.0000                                                             
     2  1  0.50        -9.0305   4.0000                                                             
     3  2  1.50        -9.5241   0.0000                                                             
   Description                                                                                      
     l       E           TYP  RCUT    TYP  RCUT                                                     
     0    -23.9615318     23  1.200                                                                 
     0     -9.5240782     23  1.200                                                                 
     1     -9.0304911     23  1.520                                                                 
     1      8.1634956     23  1.520                                                                 
     2     -9.5240782      7  1.500                                                                 
  local pseudopotential read in
  partial core-charges read in
  partial kinetic energy density read in
  kinetic energy density of atom read in
  atomic valenz-charges read in
  non local Contribution for L=           0  read in
    real space projection operators read in
  non local Contribution for L=           0  read in
    real space projection operators read in
  non local Contribution for L=           1  read in
    real space projection operators read in
  non local Contribution for L=           1  read in
    real space projection operators read in
    PAW grid and wavefunctions read in
 
   number of l-projection  operators is LMAX  =           4
   number of lm-projection operators is LMMAX =           8
 
 POTCAR:    PAW_PBE Nb_sv 25May2007               
   SHA256 =  0e8fc07c9fcd1164cf2ade22d0399fd28f85e91cd773dfa6cf24839a48c95e24 Nb_sv/POTCAR          
   COPYR  = (c) Copyright 25May2007 Georg Kresse                                                    
   COPYR  = This file is part of the software VASP. Any use, copying, and all other rights are regul
   COPYR  = If you do not have a valid VASP license, you may not use, copy or distribute this file. 
   VRHFIN =Nb: 4p5s4d                                                                               
   LEXCH  = PE                                                                                      
   EATOM  =  1555.1913 eV,  114.3033 Ry                                                             
                                                                                                    
   TITEL  = PAW_PBE Nb_sv 25May2007                                                                 
   LULTRA =        F    use ultrasoft PP ?                                                          
   IUNSCR =        1    unscreen: 0-lin 1-nonlin 2-no                                               
   RPACOR =    1.800    partial core radius                                                         
   POMASS =   92.910; ZVAL   =   13.000    mass and valenz                                          
   RCORE  =    2.400    outmost cutoff radius                                                       
   RWIGS  =    2.400; RWIGS  =    1.270    wigner-seitz radius (au A)                               
   ENMAX  =  293.235; ENMIN  =  219.927 eV                                                          
   ICORE  =        3    local potential                                                             
   LCOR   =        T    correct aug charges                                                         
   LPAW   =        T    paw PP                                                                      
   EAUG   =  455.659                                                                                
   DEXC   =    0.000                                                                                
   RMAX   =    2.456    core radius for proj-oper                                                   
   RAUG   =    1.300    factor for augmentation sphere                                              
   RDEP   =    2.451    radius for radial grids                                                     
   RDEPT  =    1.956    core radius for aug-charge                                                  
                                                                                                    
   Atomic configuration                                                                             
   11 entries                                                                                       
     n  l   j            E        occ.                                                              
     1  0  0.50    -18805.2457   2.0000                                                             
     2  0  0.50     -2630.2869   2.0000                                                             
     2  1  1.50     -2348.4046   6.0000                                                             
     3  0  0.50      -438.8757   2.0000                                                             
     3  1  1.50      -346.7588   6.0000                                                             
     3  2  2.50      -196.2560  10.0000                                                             
     4  0  0.50       -58.3859   2.0000                                                             
     5  0  0.50        -3.9816   1.0000                                                             
     4  1  1.50       -34.5141   6.0000                                                             
     4  2  2.50        -3.0408   4.0000                                                             
     4  3  2.50        -1.3606   0.0000                                                             
   Description                                                                                      
     l       E           TYP  RCUT    TYP  RCUT                                                     
     0    -58.3859094     23  2.200                                                                 
     0     -3.9816262     23  2.200                                                                 
     1    -34.5140738     23  2.200                                                                 
     1     13.6058260     23  2.200                                                                 
     2     -3.0408010     23  2.200                                                                 
     2     -0.1283038     23  2.200                                                                 
     3     -1.3605826     23  2.400                                                                 
  local pseudopotential read in
  partial core-charges read in
  partial kinetic energy density read in
  atomic valenz-charges read in
  non local Contribution for L=           0  read in
    real space projection operators read in
  non local Contribution for L=           0  read in
    real space projection operators read in
  non local Contribution for L=           1  read in
    real space projection operators read in
  non local Contribution for L=           1  read in
    real space projection operators read in
  non local Contribution for L=           2  read in
    real space projection operators read in
  non local Contribution for L=           2  read in
    real space projection operators read in
    PAW grid and wavefunctions read in
 
   number of l-projection  operators is LMAX  =           6
   number of lm-projection operators is LMMAX =          18
 
 Optimization of the real space projectors (new method)

 maximal supplied QI-value         = 16.25
 optimisation between [QCUT,QGAM] = [ 10.24, 20.48] = [ 29.35,117.42] Ry 
 Optimized for a Real-space Cutoff    1.38 Angstroem

   l    n(q)    QCUT    max X(q) W(low)/X(q) W(high)/X(q)  e(spline) 
   2      7    10.239    46.356    0.21E-03    0.48E-03    0.10E-06
   2      7    10.239    41.843    0.21E-03    0.50E-03    0.10E-06
   0      8    10.239    48.958    0.37E-03    0.79E-04    0.11E-06
   0      8    10.239    32.776    0.35E-03    0.73E-04    0.10E-06
   1      8    10.239    17.787    0.49E-03    0.70E-03    0.14E-06
   1      8    10.239    14.435    0.42E-03    0.61E-03    0.13E-06
 Optimization of the real space projectors (new method)

 maximal supplied QI-value         = 24.76
 optimisation between [QCUT,QGAM] = [ 10.15, 20.30] = [ 28.85,115.39] Ry 
 Optimized for a Real-space Cutoff    1.38 Angstroem

   l    n(q)    QCUT    max X(q) W(low)/X(q) W(high)/X(q)  e(spline) 
   0      8    10.150    20.381    0.22E-03    0.32E-03    0.29E-06
   0      8    10.150    15.268    0.23E-03    0.35E-03    0.30E-06
   1      8    10.150     5.964    0.46E-03    0.53E-03    0.21E-06
   1      8    10.150     5.382    0.38E-03    0.45E-03    0.19E-06
 Optimization of the real space projectors (new method)

 maximal supplied QI-value         = 15.68
 optimisation between [QCUT,QGAM] = [ 10.20, 20.39] = [ 29.11,116.42] Ry 
 Optimized for a Real-space Cutoff    1.60 Angstroem

   l    n(q)    QCUT    max X(q) W(low)/X(q) W(high)/X(q)  e(spline) 
   0     10    10.195    10.201    0.19E-04    0.50E-05    0.39E-07
   0     10    10.195     8.174    0.27E-04    0.89E-05    0.77E-07
   1      9    10.195     3.488    0.83E-04    0.69E-04    0.10E-06
   1      9    10.195     4.917    0.46E-03    0.32E-03    0.50E-06
   2      9    10.195   153.744    0.18E-03    0.91E-03    0.79E-06
   2      9    10.195   126.342    0.18E-03    0.90E-03    0.79E-06
  PAW_PBE Zn 06Sep2000                  :
 energy of atom  1       EATOM=-1748.8345
 kinetic energy error for atom=    0.0107 (will be added to EATOM!!)
  PAW_PBE O 08Apr2002                   :
 energy of atom  2       EATOM= -432.3788
 kinetic energy error for atom=    0.1156 (will be added to EATOM!!)
  PAW_PBE Nb_sv 25May2007               :
 energy of atom  3       EATOM=-1555.1913
 kinetic energy error for atom=    0.0212 (will be added to EATOM!!)
 
 
 POSCAR: Zn2 O2
  positions in direct lattice
  velocities in cartesian coordinates
 exchange correlation table for  LEXCH =        8
   RHO(1)=    0.500       N(1)  =     2000
   RHO(2)=  100.500       N(2)  =     4000
 


--------------------------------------------------------------------------------------------------------


 ion  position               nearest neighbor table
   1  0.167  0.083  0.166- 143 1.97 152 1.97 155 1.97  96 1.99
   2  0.167  0.083  0.500- 144 1.97  97 1.98 153 1.98 156 1.98
   3  0.167  0.083  0.834- 145 1.98  98 1.98 154 1.98 157 1.98
   4  0.166  0.333  0.166- 143 1.97 146 1.97 158 1.98  99 1.99
   5  0.165  0.333  0.500- 147 1.97 144 1.97 100 1.98 159 2.00
   6  0.166  0.333  0.834- 145 1.98 148 1.98 101 1.98 160 1.98
   7  0.167  0.583  0.166- 146 1.97 161 1.97 149 1.97 102 1.99
   8  0.167  0.584  0.500- 147 1.97 103 1.98 162 1.98 150 1.98
   9  0.167  0.583  0.834- 148 1.98 104 1.98 163 1.98 151 1.98
  10  0.167  0.833  0.166- 164 1.97 149 1.97 152 1.97 105 1.99
  11  0.168  0.834  0.500- 165 1.97 106 1.97 150 1.98 153 1.98
  12  0.167  0.833  0.834- 166 1.98 107 1.98 151 1.98 154 1.98
  13  0.417  0.083  0.166- 164 1.97 167 1.97 155 1.97 108 1.99
  14  0.416  0.082  0.500- 165 1.97 109 1.97 168 1.98 156 1.98
  15  0.417  0.083  0.834- 166 1.98 110 1.98 169 1.98 157 1.98
  16  0.415  0.332  0.166- 155 1.96 158 1.96 170 1.98 111 2.01
  17  0.407  0.327  0.503- 156 1.93 159 1.95 112 1.95 171 2.12
  18  0.418  0.334  0.834- 157 1.97 160 1.98 113 1.98 172 1.99
  19  0.415  0.583  0.166- 161 1.96 158 1.96 173 1.98 114 2.01
  20  0.406  0.580  0.503- 162 1.93 159 1.95 115 1.95 174 2.12
  21  0.418  0.584  0.834- 163 1.97 160 1.98 116 1.98 175 1.99
  22  0.417  0.833  0.166- 164 1.97 161 1.97 176 1.97 117 1.99
  23  0.416  0.834  0.501- 165 1.97 118 1.97 162 1.98 177 1.98
  24  0.417  0.833  0.834- 166 1.98 119 1.98 163 1.98 178 1.98
  25  0.667  0.083  0.166- 179 1.97 176 1.97 167 1.97 120 1.99
  26  0.666  0.083  0.500- 180 1.97 121 1.98 177 1.98 168 1.98
  27  0.667  0.083  0.834- 181 1.98 122 1.98 178 1.98 169 1.98
  28  0.667  0.332  0.166- 167 1.96 182 1.96 170 1.98 123 2.01
  29  0.670  0.327  0.503- 168 1.93 183 1.95 124 1.95 171 2.12
  30  0.666  0.334  0.834- 169 1.97 184 1.98 125 1.98 172 1.99
  31  0.667  0.583  0.167- 170 1.96 185 1.96 173 1.96 126 2.07
  32  0.667  0.583  0.836- 127 1.97 172 1.98 187 1.98 175 1.98
  33  0.667  0.835  0.166- 176 1.96 188 1.96 173 1.98 128 2.01
  34  0.670  0.844  0.503- 177 1.93 189 1.95 129 1.95 174 2.12
  35  0.666  0.832  0.834- 178 1.97 190 1.98 130 1.98 175 1.99
  36  0.917  0.084  0.166- 143 1.97 179 1.97 188 1.98 131 1.99
  37  0.917  0.085  0.500- 180 1.97 144 1.97 132 1.98 189 2.00
  38  0.917  0.084  0.834- 145 1.98 181 1.98 133 1.98 190 1.98
  39  0.917  0.333  0.166- 179 1.97 146 1.97 182 1.98 134 1.99
  40  0.918  0.332  0.500- 180 1.97 147 1.97 135 1.98 183 2.00
  41  0.917  0.333  0.834- 181 1.98 148 1.98 136 1.98 184 1.98
  42  0.918  0.583  0.166- 149 1.96 182 1.96 185 1.98 137 2.01
  43  0.923  0.580  0.503- 150 1.93 183 1.95 138 1.95 186 2.12
  44  0.916  0.584  0.834- 151 1.97 184 1.98 139 1.98 187 1.99
  45  0.918  0.835  0.166- 152 1.96 188 1.96 185 1.98 140 2.01
  46  0.923  0.843  0.503- 153 1.93 189 1.95 141 1.95 186 2.12
  47  0.916  0.832  0.834- 154 1.97 190 1.98 142 1.98 187 1.99
  48  0.083  0.167  1.000- 101 1.97 133 1.97  98 1.97 143 1.99
  49  0.083  0.167  0.332-  99 1.97 131 1.97  96 1.97 144 1.99
  50  0.083  0.167  0.667- 145 1.97  97 1.98 100 1.98 132 1.98
  51  0.083  0.417  1.000- 104 1.97 136 1.97 101 1.97 146 1.99
  52  0.083  0.417  0.332- 134 1.97  99 1.97 102 1.97 147 1.99
  53  0.083  0.417  0.667- 148 1.97 103 1.98 135 1.98 100 1.98
  54  0.083  0.667  1.000- 107 1.97 104 1.97 139 1.98 149 1.99
  55  0.085  0.667  0.332- 102 1.96 105 1.96 137 1.98 150 1.99
  56  0.083  0.667  0.668- 151 1.97 106 1.97 103 1.98 138 2.00
  57  0.083  0.917  1.000- 107 1.97  98 1.97 142 1.98 152 1.99
  58  0.085  0.918  0.332-  96 1.96 105 1.96 140 1.98 153 1.99
  59  0.083  0.916  0.668- 154 1.97 106 1.97  97 1.98 141 2.00
  60  0.333  0.167  1.000- 110 1.97  98 1.97 113 1.98 155 1.99
  61  0.332  0.165  0.332-  96 1.96 108 1.96 111 1.98 156 1.99
  62  0.334  0.167  0.668- 157 1.97 109 1.97  97 1.98 112 2.00
  63  0.333  0.417  1.000- 101 1.97 113 1.98 116 1.98 158 1.99
  64  0.332  0.416  0.332-  99 1.95 114 1.97 111 1.97 159 2.00
  65  0.333  0.416  0.669- 160 1.96 100 1.97 115 1.99 112 1.99
  66  0.333  0.667  1.000- 119 1.97 104 1.97 116 1.98 161 1.99
  67  0.332  0.667  0.332- 102 1.96 117 1.96 114 1.98 162 1.99
  68  0.334  0.667  0.668- 163 1.97 118 1.97 103 1.98 115 2.00
  69  0.333  0.917  1.000- 110 1.97 107 1.97 119 1.97 164 1.98
  70  0.333  0.917  0.332- 108 1.97 105 1.97 117 1.97 165 1.99
  71  0.333  0.917  0.667- 166 1.97 109 1.98 106 1.98 118 1.98
  72  0.583  0.167  1.000- 110 1.97 122 1.97 125 1.98 167 1.99
  73  0.583  0.165  0.332- 120 1.96 108 1.96 123 1.98 168 1.99
  74  0.583  0.167  0.668- 169 1.97 109 1.97 121 1.98 124 2.00
  75  0.583  0.416  0.002- 113 1.97 125 1.97 127 1.98 170 2.00
  76  0.582  0.413  0.326- 123 1.93 111 1.93 126 1.96 171 2.17
  77  0.588  0.425  0.665- 172 1.97 112 1.99 124 1.99
  78  0.583  0.667  0.002- 130 1.97 116 1.97 127 1.98 173 2.00
  79  0.582  0.668  0.326- 128 1.93 114 1.93 126 1.96 174 2.18
  80  0.588  0.662  0.665- 175 1.96 129 1.99 115 1.99
  81  0.583  0.917  1.000- 119 1.97 122 1.97 130 1.98 176 1.99
  82  0.583  0.918  0.332- 120 1.96 117 1.96 128 1.98 177 1.99
  83  0.583  0.916  0.668- 178 1.97 118 1.97 121 1.98 129 2.00
  84  0.833  0.167  1.000- 122 1.97 136 1.97 133 1.97 179 1.99
  85  0.833  0.167  0.332- 134 1.97 131 1.97 120 1.97 180 1.99
  86  0.833  0.167  0.667- 181 1.97 121 1.98 135 1.98 132 1.98
  87  0.833  0.417  1.000- 136 1.97 139 1.98 125 1.98 182 1.99
  88  0.834  0.416  0.332- 134 1.95 137 1.97 123 1.97 183 2.00
  89  0.834  0.416  0.669- 184 1.96 135 1.97 138 1.99 124 1.99
  90  0.834  0.667  0.002- 142 1.97 139 1.97 127 1.98 185 2.00
  91  0.837  0.668  0.326- 137 1.93 140 1.93 126 1.96 186 2.17
  92  0.825  0.662  0.665- 187 1.97 141 1.99 138 1.99
  93  0.833  0.917  1.000- 133 1.97 142 1.98 130 1.98 188 1.99
  94  0.834  0.918  0.332- 131 1.95 128 1.97 140 1.97 189 2.00
  95  0.834  0.917  0.669- 190 1.96 132 1.97 129 1.99 141 1.99
  96  0.167  0.083  0.293-  58 1.96  61 1.96  49 1.97   1 1.99
  97  0.167  0.083  0.627-   2 1.98  50 1.98  59 1.98  62 1.98
  98  0.167  0.083  0.961-  57 1.97  60 1.97  48 1.97   3 1.98
  99  0.166  0.333  0.294-  64 1.95  49 1.97  52 1.97   4 1.99
 100  0.168  0.334  0.627-  65 1.97   5 1.98  53 1.98  50 1.98
 101  0.167  0.333  0.961-  63 1.97  48 1.97  51 1.97   6 1.98
 102  0.167  0.583  0.293-  67 1.96  55 1.96  52 1.97   7 1.99
 103  0.167  0.584  0.627-   8 1.98  53 1.98  68 1.98  56 1.98
 104  0.167  0.583  0.961-  66 1.97  54 1.97  51 1.97   9 1.98
 105  0.167  0.833  0.293-  55 1.96  58 1.96  70 1.97  10 1.99
 106  0.166  0.833  0.627-  56 1.97  11 1.97  59 1.97  71 1.98
 107  0.167  0.833  0.961-  54 1.97  57 1.97  69 1.97  12 1.98
 108  0.417  0.083  0.293-  73 1.96  61 1.96  70 1.97  13 1.99
 109  0.417  0.084  0.627-  74 1.97  14 1.97  62 1.97  71 1.98
 110  0.417  0.083  0.961-  72 1.97  60 1.97  69 1.97  15 1.98
 111  0.416  0.333  0.295-  76 1.93  64 1.97  61 1.98  16 2.01
 112  0.419  0.336  0.627-  17 1.95  77 1.99  65 1.99  62 2.00
 113  0.418  0.334  0.960-  75 1.97  63 1.98  60 1.98  18 1.98
 114  0.416  0.583  0.295-  79 1.93  64 1.97  67 1.98  19 2.01
 115  0.419  0.584  0.627-  20 1.95  80 1.99  65 1.99  68 2.00
 116  0.418  0.584  0.961-  78 1.97  63 1.98  66 1.98  21 1.98
 117  0.417  0.833  0.293-  67 1.96  82 1.96  70 1.97  22 1.99
 118  0.417  0.833  0.627-  68 1.97  83 1.97  23 1.97  71 1.98
 119  0.417  0.833  0.961-  66 1.97  81 1.97  69 1.97  24 1.98
 120  0.667  0.083  0.293-  82 1.96  73 1.96  85 1.97  25 1.99
 121  0.666  0.083  0.627-  26 1.98  86 1.98  83 1.98  74 1.98
 122  0.667  0.083  0.961-  81 1.97  72 1.97  84 1.97  27 1.98
 123  0.667  0.333  0.295-  76 1.93  88 1.97  73 1.98  28 2.01
 124  0.666  0.335  0.627-  29 1.95  77 1.99  89 1.99  74 2.00
 125  0.666  0.334  0.960-  75 1.97  87 1.98  72 1.98  30 1.98
 126  0.667  0.583  0.299-  76 1.96  91 1.96  79 1.96  31 2.07
 127  0.667  0.583  0.962-  32 1.97  78 1.98  75 1.98  90 1.98
 128  0.667  0.834  0.295-  79 1.93  94 1.97  82 1.98  33 2.01
 129  0.666  0.831  0.627-  34 1.95  80 1.99  95 1.99  83 2.00
 130  0.666  0.832  0.961-  78 1.97  93 1.98  81 1.98  35 1.98
 131  0.917  0.084  0.294-  94 1.95  49 1.97  85 1.97  36 1.99
 132  0.916  0.082  0.627-  95 1.97  37 1.98  86 1.98  50 1.98
 133  0.917  0.083  0.961-  93 1.97  48 1.97  84 1.97  38 1.98
 134  0.917  0.333  0.294-  88 1.95  85 1.97  52 1.97  39 1.99
 135  0.916  0.334  0.627-  89 1.97  40 1.98  86 1.98  53 1.98
 136  0.917  0.333  0.961-  87 1.97  84 1.97  51 1.97  41 1.98
 137  0.917  0.583  0.295-  91 1.93  88 1.97  55 1.98  42 2.01
 138  0.915  0.584  0.627-  43 1.95  92 1.99  89 1.99  56 2.00
 139  0.916  0.584  0.960-  90 1.97  87 1.98  54 1.98  44 1.98
 140  0.917  0.834  0.295-  91 1.93  94 1.97  58 1.98  45 2.01
 141  0.914  0.831  0.627-  46 1.95  92 1.99  95 1.99  59 2.00
 142  0.916  0.832  0.960-  90 1.97  93 1.98  57 1.98  47 1.98
 143  0.083  0.167  0.127-   4 1.97  36 1.97   1 1.97  48 1.99
 144  0.084  0.166  0.460-   5 1.97  37 1.97   2 1.97  49 1.99
 145  0.083  0.167  0.794-  50 1.97   3 1.98   6 1.98  38 1.98
 146  0.083  0.417  0.127-  39 1.97   4 1.97   7 1.97  51 1.99
 147  0.084  0.417  0.460-  40 1.97   5 1.97   8 1.97  52 1.99
 148  0.083  0.417  0.794-  53 1.97   9 1.98  41 1.98   6 1.98
 149  0.083  0.667  0.127-  42 1.96   7 1.97  10 1.97  54 1.99
 150  0.084  0.667  0.460-  43 1.93  11 1.98   8 1.98  55 1.99
 151  0.083  0.667  0.794-  56 1.97  44 1.97  12 1.98   9 1.98
 152  0.083  0.917  0.127-  45 1.96   1 1.97  10 1.97  57 1.99
 153  0.084  0.916  0.460-  46 1.93  11 1.98   2 1.98  58 1.99
 154  0.083  0.916  0.794-  59 1.97  47 1.97  12 1.98   3 1.98
 155  0.333  0.167  0.127-  16 1.96   1 1.97  13 1.97  60 1.99
 156  0.334  0.166  0.460-  17 1.93  14 1.98   2 1.98  61 1.99
 157  0.334  0.167  0.794-  62 1.97  18 1.97  15 1.98   3 1.98
 158  0.333  0.417  0.127-  19 1.96  16 1.96   4 1.98  63 1.99
 159  0.335  0.417  0.460-  20 1.95  17 1.95  64 2.00   5 2.00
 160  0.334  0.417  0.794-  65 1.96  21 1.98  18 1.98   6 1.98
 161  0.333  0.667  0.127-  19 1.96   7 1.97  22 1.97  66 1.99
 162  0.334  0.668  0.460-  20 1.93  23 1.98   8 1.98  67 1.99
 163  0.334  0.667  0.794-  68 1.97  21 1.97  24 1.98   9 1.98
 164  0.333  0.917  0.127-  13 1.97  10 1.97  22 1.97  69 1.98
 165  0.333  0.917  0.460-  14 1.97  11 1.97  23 1.97  70 1.99
 166  0.333  0.917  0.794-  71 1.97  24 1.98  15 1.98  12 1.98
 167  0.583  0.167  0.127-  28 1.96  25 1.97  13 1.97  72 1.99
 168  0.583  0.166  0.460-  29 1.93  14 1.98  26 1.98  73 1.99
 169  0.583  0.167  0.794-  74 1.97  30 1.97  15 1.98  27 1.98
 170  0.583  0.417  0.130-  31 1.96  16 1.98  28 1.98  75 2.00
 171  0.587  0.424  0.465- 191 1.89  29 2.12  17 2.12  76 2.17
 172  0.585  0.419  0.791-  77 1.97  32 1.98  30 1.99  18 1.99
 173  0.583  0.667  0.130-  31 1.96  33 1.98  19 1.98  78 2.00
 174  0.587  0.663  0.465- 191 1.89  34 2.12  20 2.12  79 2.18
 175  0.584  0.666  0.791-  80 1.96  32 1.98  35 1.99  21 1.99
 176  0.583  0.917  0.127-  33 1.96  25 1.97  22 1.97  81 1.99
 177  0.582  0.916  0.460-  34 1.93  23 1.98  26 1.98  82 1.99
 178  0.583  0.916  0.794-  83 1.97  35 1.97  24 1.98  27 1.98
 179  0.833  0.167  0.127-  39 1.97  36 1.97  25 1.97  84 1.99
 180  0.833  0.166  0.460-  40 1.97  37 1.97  26 1.97  85 1.99
 181  0.833  0.167  0.794-  86 1.97  27 1.98  41 1.98  38 1.98
 182  0.833  0.417  0.127-  42 1.96  28 1.96  39 1.98  87 1.99
 183  0.833  0.417  0.460-  43 1.95  29 1.95  88 2.00  40 2.00
 184  0.833  0.417  0.794-  89 1.96  44 1.98  30 1.98  41 1.98
 185  0.833  0.667  0.130-  31 1.96  45 1.98  42 1.98  90 2.00
 186  0.826  0.663  0.465- 191 1.89  43 2.12  46 2.12  91 2.17
 187  0.831  0.665  0.791-  92 1.97  32 1.98  44 1.99  47 1.99
 188  0.833  0.917  0.127-  33 1.96  45 1.96  36 1.98  93 1.99
 189  0.833  0.915  0.460-  34 1.95  46 1.95  94 2.00  37 2.00
 190  0.833  0.916  0.794-  95 1.96  35 1.98  47 1.98  38 1.98
 191  0.667  0.583  0.503- 171 1.89 186 1.89 174 1.89
 
  LATTYP: Found a hexagonal cell.
 ALAT       =    12.9943542480
 C/A-ratio  =     1.2014478222
  
  Lattice vectors:
  
 A1 = (  12.9943542480,   0.0000000000,   0.0000000000)
 A2 = (  -6.4971766472,  11.2534400587,   0.0000000000)
 A3 = (   0.0000000000,   0.0000000000,  15.6120386124)


Analysis of symmetry for initial positions (statically):
=====================================================================
 Subroutine PRICEL returns:
 Original cell was already a primitive cell.
 

 Routine SETGRP: Setting up the symmetry group for a 
 hexagonal supercell.


 Subroutine GETGRP returns: Found  2 space group operations
 (whereof  1 operations were pure point group operations)
 out of a pool of 24 trial point group operations.


The static configuration has the point symmetry C_1 .
 The point group associated with its full space group is C_1h.


Analysis of symmetry for dynamics (positions and initial velocities):
=====================================================================
 Subroutine PRICEL returns:
 Original cell was already a primitive cell.
 

 Routine SETGRP: Setting up the symmetry group for a 
 hexagonal supercell.


 Subroutine GETGRP returns: Found  2 space group operations
 (whereof  1 operations were pure point group operations)
 out of a pool of 24 trial point group operations.


The dynamic configuration has the point symmetry C_1 .
 The point group associated with its full space group is C_1h.


Analysis of structural, dynamic, and magnetic symmetry:
=====================================================================
 Subroutine PRICEL returns:
 Original cell was already a primitive cell.
 

 Routine SETGRP: Setting up the symmetry group for a 
 hexagonal supercell.


 Subroutine GETGRP returns: Found  2 space group operations
 (whereof  1 operations were pure point group operations)
 out of a pool of 24 trial point group operations.


The overall configuration has the point symmetry C_1 .
 The point group associated with its full space group is C_1h.


 Subroutine INISYM returns: Found  2 space group operations
 (whereof  1 operations are pure point group operations),
 and found     1 'primitive' translations


----------------------------------------------------------------------------------------

                                     Primitive cell                                     

  volume of cell :    2282.9669

  direct lattice vectors                    reciprocal lattice vectors
    12.994354248  0.000000000  0.000000000     0.076956498  0.044430855  0.000000000
    -6.497176647 11.253440059  0.000000000     0.000000000  0.088861716  0.000000000
     0.000000000  0.000000000 15.612038612     0.000000000  0.000000000  0.064053134

  length of vectors
    12.994354248 12.994353294 15.612038612     0.088861710  0.088861716  0.064053134

  position of ions in fractional coordinates (direct lattice)
     0.166582352  0.083417640  0.165606441
     0.166770404  0.083229588  0.500190088
     0.166550126  0.083449866  0.833756163
     0.166007968  0.332987170  0.165900432
     0.165088861  0.332528795  0.499940064
     0.166455987  0.333202075  0.833863724
     0.166575162  0.583144287  0.165612942
     0.166765453  0.583534409  0.500202898
     0.166524612  0.583070081  0.833796474
     0.166942635  0.833469105  0.165571080
     0.168004378  0.834004964  0.500478044
     0.166848624  0.833434873  0.834011305
     0.416530895  0.083057357  0.165571080
     0.415995036  0.081995614  0.500478044
     0.416565127  0.083151368  0.834011305
     0.414900637  0.332269418  0.165891331
     0.406551218  0.326733975  0.502682219
     0.417818265  0.333959837  0.833518292
     0.414889220  0.582627258  0.165880496
     0.406461750  0.579826355  0.502674348
     0.417750715  0.583885172  0.833525029
     0.416517862  0.833482138  0.165561102
     0.415962139  0.834037861  0.500502002
     0.416520363  0.833479637  0.834040293
     0.666855713  0.083424830  0.165612942
     0.666465591  0.083234539  0.500202898
     0.666929919  0.083475380  0.833796474
     0.667382778  0.332256098  0.165893624
     0.670255689  0.326700846  0.502680934
     0.666167852  0.333918641  0.833522344
     0.666659975  0.583340025  0.166556046
     0.666642701  0.583357299  0.836002996
     0.667372742  0.835110780  0.165880496
     0.670173645  0.843538250  0.502674348
     0.666114828  0.832249285  0.833525029
     0.917012830  0.083992024  0.165900432
     0.917471205  0.084911131  0.499940064
     0.916797925  0.083544005  0.833863724
     0.917017865  0.332982135  0.165902231
     0.917537082  0.332462918  0.499957656
     0.916824430  0.333175570  0.833870280
     0.917743902  0.582617222  0.165893624
     0.923299154  0.579744311  0.502680934
     0.916081359  0.583832148  0.833522344
     0.917730582  0.835099363  0.165891331
     0.923266025  0.843448782  0.502682219
     0.916040163  0.832181735  0.833518292
     0.083303162  0.166696830  0.999887979
     0.083325890  0.166674102  0.332467076
     0.083348095  0.166651897  0.667122565
     0.083312143  0.416600891  0.999901283
     0.083334813  0.416628956  0.332470395
     0.083409469  0.416721817  0.667136318
     0.083336290  0.666652788  0.999681068
     0.085066145  0.667453202  0.331987337
     0.083476531  0.667229912  0.668119821
     0.083325192  0.916671878  0.999682072
     0.085066421  0.917606796  0.331988123
     0.083407663  0.916222997  0.668088601
     0.333328122  0.166674800  0.999682072
     0.332393204  0.164933571  0.331988123
     0.333777003  0.166592329  0.668088601
     0.333323545  0.416655091  0.999687813
     0.331512986  0.415744001  0.332433757
     0.332783937  0.416443259  0.668718660
     0.333318133  0.666643733  0.999675430
     0.332372857  0.667470277  0.331979355
     0.333738991  0.667299502  0.668131079
     0.333316440  0.916683560  0.999847289
     0.333325618  0.916674382  0.332209951
     0.333279757  0.916720243  0.667368490
     0.583347212  0.166663702  0.999681068
     0.582546798  0.164933847  0.331987337
     0.582770088  0.166523461  0.668119821
     0.583144868  0.416282264  0.001676089
     0.581707320  0.413377649  0.325858649
     0.587680173  0.425224516  0.665069654
     0.583145809  0.666854191  0.001672594
     0.581640381  0.668359619  0.325877074
     0.587545624  0.662454376  0.665105431
     0.583356267  0.916681867  0.999675430
     0.582529723  0.917627143  0.331979355
     0.582700498  0.916261009  0.668131079
     0.833399109  0.166687849  0.999901283
     0.833371044  0.166665179  0.332470395
     0.833278183  0.166590523  0.667136318
     0.833315476  0.416684524  0.999696625
     0.834277035  0.415722965  0.332436077
     0.833691319  0.416308681  0.668686502
     0.833717736  0.666855132  0.001676089
     0.836622351  0.668292680  0.325858649
     0.824775484  0.662319827  0.665069654
     0.833344909  0.916676455  0.999687813
     0.834255999  0.918487014  0.332433757
     0.833556741  0.917216063  0.668718660
     0.166544392  0.083455600  0.293289871
     0.166935608  0.083064384  0.626899226
     0.166647800  0.083352192  0.960507081
     0.166434970  0.333194667  0.293563869
     0.167517654  0.333744314  0.626603265
     0.166852547  0.333411447  0.960575699
     0.166519720  0.583048548  0.293292839
     0.166949041  0.583876759  0.626910538
     0.166639655  0.583279364  0.960537319
     0.166658408  0.833319509  0.293208505
     0.166274438  0.833146310  0.626956515
     0.166590186  0.833291008  0.960641352
     0.416680491  0.083341584  0.293208505
     0.416853690  0.083725554  0.626956515
     0.416708992  0.083409806  0.960641352
     0.416144955  0.333124174  0.294744800
     0.419292580  0.335533008  0.627349208
     0.417663774  0.333919308  0.960496778
     0.416102695  0.582989248  0.294729836
     0.419185153  0.583851437  0.627357064
     0.417641841  0.583748862  0.960503371
     0.416664380  0.833335620  0.293198336
     0.416797955  0.833202045  0.626968196
     0.416689465  0.833310535  0.960660886
     0.666951452  0.083480272  0.293292839
     0.666123241  0.083050951  0.626910538
     0.666720636  0.083360337  0.960537319
     0.667024774  0.333134347  0.294746550
     0.666285826  0.335396874  0.627347754
     0.666288125  0.333899975  0.960498743
     0.666644080  0.583355920  0.298995975
     0.666670230  0.583329770  0.962206455
     0.667010752  0.833897305  0.294729836
     0.666148563  0.830814847  0.627357064
     0.666251138  0.832358159  0.960503371
     0.916805333  0.083565022  0.293563869
     0.916255686  0.082482338  0.626603265
     0.916588553  0.083147445  0.960575699
     0.916815855  0.333184145  0.293563052
     0.916333478  0.333666522  0.626616343
     0.916597247  0.333402753  0.960585714
     0.916865653  0.582975226  0.294746550
     0.914603126  0.583714174  0.627347754
     0.916100025  0.583711875  0.960498743
     0.916875826  0.833855045  0.294744800
     0.914466992  0.830707420  0.627349208
     0.916080692  0.832336226  0.960496778
     0.083339172  0.166660820  0.127045129
     0.083668402  0.166331590  0.460050507
     0.083317138  0.166682854  0.793567813
     0.083345355  0.416668770  0.127056745
     0.083711294  0.417347870  0.460054676
     0.083347309  0.416634583  0.793578456
     0.083302851  0.666643309  0.127054409
     0.083637972  0.667479950  0.459671988
     0.082797222  0.666514009  0.794154752
     0.083294928  0.916659011  0.127045218
     0.083586310  0.916138522  0.459679524
     0.082755114  0.916266096  0.794129831
     0.333340989  0.166705064  0.127045218
     0.333861478  0.166413682  0.459679524
     0.333733904  0.167244878  0.794129831
     0.333205999  0.416601026  0.127279558
     0.334514398  0.417270181  0.460240222
     0.333772178  0.416909525  0.794419211
     0.333331782  0.666649596  0.127053790
     0.333826675  0.667515439  0.459670629
     0.333693017  0.666563002  0.794162077
     0.333320309  0.916679691  0.126940138
     0.333302500  0.916697500  0.459599054
     0.333301458  0.916698542  0.793808376
     0.583356691  0.166697141  0.127054409
     0.582520050  0.166362020  0.459671988
     0.583485991  0.167202770  0.794154752
     0.583393501  0.416766609  0.129893861
     0.587183691  0.424180284  0.464940445
     0.584526863  0.418981319  0.790870473
     0.583370720  0.666629280  0.129890337
     0.586989585  0.663010415  0.464994411
     0.584440355  0.665559645  0.790885103
     0.583350404  0.916668218  0.127053790
     0.582484561  0.916173325  0.459670629
     0.583436998  0.916306983  0.794162077
     0.833331230  0.166654637  0.127056745
     0.832652130  0.166288698  0.460054676
     0.833365417  0.166652683  0.793578456
     0.833408806  0.416591194  0.127289703
     0.832831488  0.417168512  0.460247576
     0.833158362  0.416841638  0.794412094
     0.833233391  0.666606499  0.129893861
     0.825819716  0.662816309  0.464940445
     0.831018681  0.665473137  0.790870473
     0.833398974  0.916794001  0.127279558
     0.832729819  0.915485602  0.460240222
     0.833090475  0.916227822  0.794419211
     0.666623443  0.583376557  0.502745995

  ion indices of the primitive-cell ions
   primitive index   ion index
                 1           1
                 2           2
                 3           3
                 4           4
                 5           5
                 6           6
                 7           7
                 8           8
                 9           9
                10          10
                11          11
                12          12
                13          13
                14          14
                15          15
                16          16
                17          17
                18          18
                19          19
                20          20
                21          21
                22          22
                23          23
                24          24
                25          25
                26          26
                27          27
                28          28
                29          29
                30          30
                31          31
                32          32
                33          33
                34          34
                35          35
                36          36
                37          37
                38          38
                39          39
                40          40
                41          41
                42          42
                43          43
                44          44
                45          45
                46          46
                47          47
                48          48
                49          49
                50          50
                51          51
                52          52
                53          53
                54          54
                55          55
                56          56
                57          57
                58          58
                59          59
                60          60
                61          61
                62          62
                63          63
                64          64
                65          65
                66          66
                67          67
                68          68
                69          69
                70          70
                71          71
                72          72
                73          73
                74          74
                75          75
                76          76
                77          77
                78          78
                79          79
                80          80
                81          81
                82          82
                83          83
                84          84
                85          85
                86          86
                87          87
                88          88
                89          89
                90          90
                91          91
                92          92
                93          93
                94          94
                95          95
                96          96
                97          97
                98          98
                99          99
               100         100
               101         101
               102         102
               103         103
               104         104
               105         105
               106         106
               107         107
               108         108
               109         109
               110         110
               111         111
               112         112
               113         113
               114         114
               115         115
               116         116
               117         117
               118         118
               119         119
               120         120
               121         121
               122         122
               123         123
               124         124
               125         125
               126         126
               127         127
               128         128
               129         129
               130         130
               131         131
               132         132
               133         133
               134         134
               135         135
               136         136
               137         137
               138         138
               139         139
               140         140
               141         141
               142         142
               143         143
               144         144
               145         145
               146         146
               147         147
               148         148
               149         149
               150         150
               151         151
               152         152
               153         153
               154         154
               155         155
               156         156
               157         157
               158         158
               159         159
               160         160
               161         161
               162         162
               163         163
               164         164
               165         165
               166         166
               167         167
               168         168
               169         169
               170         170
               171         171
               172         172
               173         173
               174         174
               175         175
               176         176
               177         177
               178         178
               179         179
               180         180
               181         181
               182         182
               183         183
               184         184
               185         185
               186         186
               187         187
               188         188
               189         189
               190         190
               191         191

----------------------------------------------------------------------------------------

 
 
 KPOINTS: pymatgen with grid density = 659 / numbe

Automatic generation of k-mesh.
 Grid dimensions read from file:
 generate k-points for:    1    1    1

 Generating k-lattice:

  Cartesian coordinates                     Fractional coordinates (reciprocal lattice)
     0.076956498  0.044430855  0.000000000     1.000000000  0.000000000  0.000000000
     0.000000000  0.088861716  0.000000000     0.000000000  1.000000000  0.000000000
     0.000000000  0.000000000  0.064053134     0.000000000  0.000000000  1.000000000

  Length of vectors
     0.088861710  0.088861716  0.064053134

  Shift w.r.t. Gamma in fractional coordinates (k-lattice)
     0.000000000  0.000000000  0.000000000

 
 Subroutine IBZKPT returns following result:
 ===========================================
 
 Found      1 irreducible k-points:
 
 Following reciprocal coordinates:
            Coordinates               Weight
  0.000000  0.000000  0.000000      1.000000
 
 Following cartesian coordinates:
            Coordinates               Weight
  0.000000  0.000000  0.000000      1.000000
 
 
 Subroutine IBZKPT_HF returns following result:
 ==============================================
 
 Found      1 k-points in 1st BZ
 the following      1 k-points will be used (e.g. in the exchange kernel)
 Following reciprocal coordinates:   # in IRBZ
  0.000000  0.000000  0.000000    1.00000000   1 t-inv F


--------------------------------------------------------------------------------------------------------




 Dimension of arrays:
   k-points           NKPTS =      1   k-points in BZ     NKDIM =      1   number of bands    NBANDS=   1344
   number of dos      NEDOS =    301   number of ions     NIONS =    191
   non local maximal  LDIM  =      6   non local SUM 2l+1 LMDIM =     18
   total plane-waves  NPLWV = 327680
   max r-space proj   IRMAX =   2514   max aug-charges    IRDMAX=   6277
   dimension x,y,z NGX =    64 NGY =   64 NGZ =   80
   dimension x,y,z NGXF=   128 NGYF=  128 NGZF=  160
   support grid    NGXF=   128 NGYF=  128 NGZF=  160
   ions per type =              95  95   1
   NGX,Y,Z   is equivalent  to a cutoff of   8.19,  8.19,  8.52 a.u.
   NGXF,Y,Z  is equivalent  to a cutoff of  16.38, 16.38, 17.04 a.u.

 SYSTEM =  zno                                     
 POSCAR =  Zn2 O2                                  

 Startparameter for this run:
   NWRITE =      2    write-flag & timer
   PREC   = normal    normal or accurate (medium, high low for compatibility)
   ISTART =      1    job   : 0-new  1-cont  2-samecut
   ICHARG =      1    charge: 1-file 2-atom 10-const
   ISPIN  =      2    spin polarized calculation?
   LNONCOLLINEAR =      F non collinear calculations
   LSORBIT =      F    spin-orbit coupling
   INIWAV =      1    electr: 0-lowe 1-rand  2-diag
   LASPH  =      F    aspherical Exc in radial PAW
 Electronic Relaxation 1
   ENCUT  =  400.0 eV  29.40 Ry    5.42 a.u.  21.19 21.19 25.46*2*pi/ulx,y,z
   ENINI  =  400.0     initial cutoff
   ENAUG  =  605.4 eV  augmentation charge cutoff
   NELM   =   1500;   NELMIN=  4; NELMDL=  0     # of ELM steps 
   EDIFF  = 0.1E-05   stopping-criterion for ELM
   LREAL  =      T    real-space projection
   NLSPLINE    = F    spline interpolate recip. space projectors
   LCOMPAT=      F    compatible to vasp.4.4
   GGA_COMPAT  = T    GGA compatible to vasp.4.4-vasp.4.6
   LMAXPAW     = -100 max onsite density
   LMAXMIX     =    2 max onsite mixed and CHGCAR
   VOSKOWN=      0    Vosko Wilk Nusair interpolation
   ROPT   =   -0.00050  -0.00050  -0.00050
 Ionic relaxation
   EDIFFG = -.1E-01   stopping-criterion for IOM
   NSW    =     40    number of steps for IOM
   NBLOCK =      1;   KBLOCK =     40    inner block; outer block 
   IBRION =      1    ionic relax: 0-MD 1-quasi-New 2-CG
   NFREE  =      0    steps in history (QN), initial steepest desc. (CG)
   ISIF   =      2    stress and relaxation
   IWAVPR =     11    prediction:  0-non 1-charg 2-wave 3-comb
   ISYM   =      3    0-nonsym 1-usesym 2-fastsym
   LCORR  =      T    Harris-Foulkes like correction to forces

   POTIM  = 0.2000    time-step for ionic-motion
   TEIN   =    0.0    initial temperature
   TEBEG  =    0.0;   TEEND  =   0.0 temperature during run
   SMASS  =  -3.00    Nose mass-parameter (am)
   estimated Nose-frequenzy (Omega)   =  0.10E-29 period in steps = 0.31E+47 mass=  -0.386E-26a.u.
   SCALEE = 1.0000    scale energy and forces
   NPACO  =    256;   APACO  = 10.0  distance and # of slots for P.C.
   PSTRESS=    0.0 pullay stress

  Mass of Ions in am
   POMASS =  65.39 16.00 92.91
  Ionic Valenz
   ZVAL   =  12.00  6.00 13.00
  Atomic Wigner-Seitz radii
   RWIGS  =  -1.00 -1.00 -1.00
  virtual crystal weights 
   VCA    =   1.00  1.00  1.00
   NELECT =    1722.0000    total number of electrons
   NUPDOWN=      -1.0000    fix difference up-down

 DOS related values:
   EMIN   =  10.00;   EMAX   =-10.00  energy-range for DOS
   EFERMI =   0.00;   METHOD = LEGACY      
   ISMEAR =    -2;   SIGMA  =   0.00  broadening in eV -4-tet -1-fermi 0-gaus

 Electronic relaxation 2 (details)
   IALGO  =     53    algorithm
   LDIAG  =      F    sub-space diagonalisation (order eigenvalues)
   LSUBROT=      F    optimize rotation matrix (better conditioning)
   TURBO    =      0    0=normal 1=particle mesh
   IRESTART =      0    0=no restart 2=restart with 2 vectors
   NREBOOT  =      0    no. of reboots
   NMIN     =      0    reboot dimension
   EREF     =   0.00    reference energy to select bands
   IMIX   =      4    mixing-type and parameters
     AMIX     =   0.40;   BMIX     =  1.00
     AMIX_MAG =   1.60;   BMIX_MAG =  1.00
     AMIN     =   0.10
     WC   =   100.;   INIMIX=   1;  MIXPRE=   1;  MAXMIX= -45

 Intra band minimization:
   WEIMIN = 0.0010     energy-eigenvalue tresh-hold
   EBREAK =  0.19E-09  absolut break condition
   DEPER  =   0.30     relativ break condition  

   TIME   =   0.30     timestep for ELM

  volume/ion in A,a.u.               =      11.95        80.66
  Fermi-wavevector in a.u.,A,eV,Ry     =   1.490228  2.816122 30.215533  2.220779
  Thomas-Fermi vector in A             =   2.603036
 
 Write flags
   LWAVE        =      T    write WAVECAR
   LDOWNSAMPLE  =      F    k-point downsampling of WAVECAR
   LCHARG       =      T    write CHGCAR
   LVTOT        =      F    write LOCPOT, total local potential
   LVHAR        =      T    write LOCPOT, Hartree potential only
   LELF         =      F    write electronic localiz. function (ELF)
   LORBIT       =     11    0 simple, 1 ext, 2 COOP (PROOUT), +10 PAW based schemes


 Dipole corrections
   LMONO  =      F    monopole corrections only (constant potential shift)
   LDIPOL =      F    correct potential (dipole corrections)
   IDIPOL =      0    1-x, 2-y, 3-z, 4-all directions 
   EPSILON=  1.0000000 bulk dielectric constant

 Exchange correlation treatment:
   GGA     =    PE    GGA type
   LEXCH   =     8    internal setting for exchange type
   LIBXC   =     F    Libxc                    
   VOSKOWN =     0    Vosko Wilk Nusair interpolation
   EXXOEP  =     0    0=HF, 1=EXX-LHF (local Hartree Fock) 2=EXX OEP
   LHFCALC =     T    Hartree Fock is set to
   LSYMGRAD=     F    symmetrize gradient (conserves proper symmetry)
   PRECFOCK=normal    Normal, Fast or Accurate (Low or Medium for compatibility)
   LRHFCALC=     F    long range Hartree Fock
   LRSCOR  =     F    long range correlation only (use DFT for short range part)
   LTHOMAS =     F    Thomas Fermi screening in HF
   LMODELHF=     F    short range full HF, long range fraction AEXX
   FOCKCORR=     1    mode to apply convergence corrections
   LFOCKACE=     T    use Adeptively-Compressed-Exchange operator
   ENCUT4O =  -1.0   cutoff for four orbital integrals eV
   LMAXFOCK=     4    L truncation for augmentation on plane wave grid
   LMAXFOCKAE=  -1    L truncation for all-electron charge restoration on plane wave grid
   NMAXFOCKAE=   1    number of basis functions for all-electron charge restoration
   LFOCKAEDFT=     F  apply the AE augmentation even for DFT
   NKREDX  =     1    reduce k-point grid by
   NKREDY  =     1    reduce k-point grid by
   NKREDZ  =     1    reduce k-point grid by
   SHIFTRED=     F    shift reduced grid of Gamma
   HFKIDENT=     F    idential grid for each k-point
   ODDONLY =     F    use only odd q-grid points
   EVENONLY=     F    use only even q-grid points
   HFALPHA =   -1.0000 decay constant for conv. correction
   MCALPHA =    0.0000 extent of test-charge in conv. correction in multipole expansion
   AEXX    =    0.3750 exact exchange contribution
   HFSCREEN=    0.2000 screening length (either q_TF or 0.3 A-1)
   HFSCREENC=   0.2000 screening length for correlation (either q_TF or 0.3 A-1)
   HFRCUT  =    0.0000 spherical cutoff for potential kernel
   ALDAX   =    0.6250 LDA exchange part
   AGGAX   =    0.6250 GGA exchange part
   ALDAC   =    1.0000 LDA correlation
   AGGAC   =    1.0000 GGA correlation
   ENCUTFOCK=  -1.0 apply spherical cutoff to Coloumb kernel
   NBANDSGWLOW=     1    first orbital included in HF term
   NBLOCK_FOCK=    64    blocking factor in FOCK_ACC

 Linear response parameters
   LEPSILON=     F    determine dielectric tensor
   LRPA    =     F    only Hartree local field effects (RPA)
   LNABLA  =     F    use nabla operator in PAW spheres
   LVEL    =     F    velocity operator in full k-point grid
   CSHIFT  =0.1000    complex shift for real part using Kramers Kronig
   OMEGAMAX=  -1.0    maximum frequency
   DEG_THRESHOLD= 0.2000000E-02 threshold for treating states as degnerate
   RTIME   =   -0.100 relaxation time in fs
  (WPLASMAI=    0.000 imaginary part of plasma frequency in eV, 0.658/RTIME)
   DFIELD  = 0.0000000 0.0000000 0.0000000 field for delta impulse in time
 
  Optional k-point grid parameters
   LKPOINTS_OPT  =     F    use optional k-point grid
   KPOINTS_OPT_MODE=     1    mode for optional k-point grid
 
 Orbital magnetization related:
   ORBITALMAG=     F  switch on orbital magnetization
   LCHIMAG   =     F  perturbation theory with respect to B field
   DQ        =  0.001000  dq finite difference perturbation B field
   LLRAUG    =     F  two centre corrections for induced B field
   LBONE     =     F  B-component reconstruction in AE one-centre
   LVGVCALC  =     T  calculate vGv susceptibility
   LVGVAPPL  =     F  apply vGv susceptibility instead of pGv for G=0

 Random number generation:
   RANDOM_GENERATOR = DEFAULT
   PCG_SEED         = not used


--------------------------------------------------------------------------------------------------------


 quasi-Newton-method for relaxation of ions
 charge density and potential will be updated during run
 spin polarized calculation
 Conjugate gradient for all bands (Kresse, et al. variant)
 perform Loewdin sub-space diagonalisation
    ordering is kept fixed
    before iterative eigenvector-optimisation
 modified Broyden-mixing scheme, WC =      100.0
 initial mixing is a Kerker type mixing with AMIX =  0.4000 and BMIX =      1.0000
 Hartree-type preconditioning will be used
 using additional bands          483
 WARNING: no broadening specified (might cause bad convergence)
 real space projection scheme for non local part
 use partial core corrections
 no Harris-corrections to forces 
 use gradient corrections 
 use of overlap-Matrix (Vanderbilt PP)
 partial occupancies read from INCAR or WAVECAR (fixed during run)


--------------------------------------------------------------------------------------------------------


  energy-cutoff  :      400.00
  volume of cell :     2282.97
      direct lattice vectors                 reciprocal lattice vectors
    12.994354248  0.000000000  0.000000000     0.076956498  0.044430855  0.000000000
    -6.497176647 11.253440059  0.000000000     0.000000000  0.088861716  0.000000000
     0.000000000  0.000000000 15.612038612     0.000000000  0.000000000  0.064053134

  length of vectors
    12.994354248 12.994353294 15.612038612     0.088861710  0.088861716  0.064053134


 
 old parameters found on file WAVECAR:
  energy-cutoff  :      400.00
  volume of cell :     2282.97
      direct lattice vectors                 reciprocal lattice vectors
    12.994354248  0.000000000  0.000000000     0.076956498  0.044430855  0.000000000
    -6.497176647 11.253440059  0.000000000     0.000000000  0.088861716  0.000000000
     0.000000000  0.000000000 15.612038612     0.000000000  0.000000000  0.064053134

  length of vectors

 
 k-points in units of 2pi/SCALE and weight: pymatgen with grid density = 659 / numbe
   0.00000000  0.00000000  0.00000000       1.000
 
 k-points in reciprocal lattice and weights: pymatgen with grid density = 659 / numbe
   0.00000000  0.00000000  0.00000000       1.000
 
 position of ions in fractional coordinates (direct lattice) 
   0.16658235  0.08341764  0.16560644
   0.16677040  0.08322959  0.50019009
   0.16655013  0.08344987  0.83375616
   0.16600797  0.33298717  0.16590043
   0.16508886  0.33252880  0.49994006
   0.16645599  0.33320208  0.83386372
   0.16657516  0.58314429  0.16561294
   0.16676545  0.58353441  0.50020290
   0.16652461  0.58307008  0.83379647
   0.16694264  0.83346911  0.16557108
   0.16800438  0.83400496  0.50047804
   0.16684862  0.83343487  0.83401131
   0.41653089  0.08305736  0.16557108
   0.41599504  0.08199561  0.50047804
   0.41656513  0.08315137  0.83401131
   0.41490064  0.33226942  0.16589133
   0.40655122  0.32673397  0.50268222
   0.41781826  0.33395984  0.83351829
   0.41488922  0.58262726  0.16588050
   0.40646175  0.57982635  0.50267435
   0.41775071  0.58388517  0.83352503
   0.41651786  0.83348214  0.16556110
   0.41596214  0.83403786  0.50050200
   0.41652036  0.83347964  0.83404029
   0.66685571  0.08342483  0.16561294
   0.66646559  0.08323454  0.50020290
   0.66692992  0.08347538  0.83379647
   0.66738278  0.33225610  0.16589362
   0.67025569  0.32670085  0.50268093
   0.66616785  0.33391864  0.83352234
   0.66665997  0.58334003  0.16655605
   0.66664270  0.58335730  0.83600300
   0.66737274  0.83511078  0.16588050
   0.67017365  0.84353825  0.50267435
   0.66611483  0.83224929  0.83352503
   0.91701283  0.08399202  0.16590043
   0.91747120  0.08491113  0.49994006
   0.91679792  0.08354400  0.83386372
   0.91701787  0.33298213  0.16590223
   0.91753708  0.33246292  0.49995766
   0.91682443  0.33317557  0.83387028
   0.91774390  0.58261722  0.16589362
   0.92329915  0.57974431  0.50268093
   0.91608136  0.58383215  0.83352234
   0.91773058  0.83509936  0.16589133
   0.92326603  0.84344878  0.50268222
   0.91604016  0.83218174  0.83351829
   0.08330316  0.16669683  0.99988798
   0.08332589  0.16667410  0.33246708
   0.08334809  0.16665190  0.66712256
   0.08331214  0.41660089  0.99990128
   0.08333481  0.41662896  0.33247039
   0.08340947  0.41672182  0.66713632
   0.08333629  0.66665279  0.99968107
   0.08506615  0.66745320  0.33198734
   0.08347653  0.66722991  0.66811982
   0.08332519  0.91667188  0.99968207
   0.08506642  0.91760680  0.33198812
   0.08340766  0.91622300  0.66808860
   0.33332812  0.16667480  0.99968207
   0.33239320  0.16493357  0.33198812
   0.33377700  0.16659233  0.66808860
   0.33332354  0.41665509  0.99968781
   0.33151299  0.41574400  0.33243376
   0.33278394  0.41644326  0.66871866
   0.33331813  0.66664373  0.99967543
   0.33237286  0.66747028  0.33197936
   0.33373899  0.66729950  0.66813108
   0.33331644  0.91668356  0.99984729
   0.33332562  0.91667438  0.33220995
   0.33327976  0.91672024  0.66736849
   0.58334721  0.16666370  0.99968107
   0.58254680  0.16493385  0.33198734
   0.58277009  0.16652346  0.66811982
   0.58314487  0.41628226  0.00167609
   0.58170732  0.41337765  0.32585865
   0.58768017  0.42522452  0.66506965
   0.58314581  0.66685419  0.00167259
   0.58164038  0.66835962  0.32587707
   0.58754562  0.66245438  0.66510543
   0.58335627  0.91668187  0.99967543
   0.58252972  0.91762714  0.33197936
   0.58270050  0.91626101  0.66813108
   0.83339911  0.16668785  0.99990128
   0.83337104  0.16666518  0.33247039
   0.83327818  0.16659052  0.66713632
   0.83331548  0.41668452  0.99969663
   0.83427703  0.41572297  0.33243608
   0.83369132  0.41630868  0.66868650
   0.83371774  0.66685513  0.00167609
   0.83662235  0.66829268  0.32585865
   0.82477548  0.66231983  0.66506965
   0.83334491  0.91667646  0.99968781
   0.83425600  0.91848701  0.33243376
   0.83355674  0.91721606  0.66871866
   0.16654439  0.08345560  0.29328987
   0.16693561  0.08306438  0.62689923
   0.16664780  0.08335219  0.96050708
   0.16643497  0.33319467  0.29356387
   0.16751765  0.33374431  0.62660327
   0.16685255  0.33341145  0.96057570
   0.16651972  0.58304855  0.29329284
   0.16694904  0.58387676  0.62691054
   0.16663965  0.58327936  0.96053732
   0.16665841  0.83331951  0.29320851
   0.16627444  0.83314631  0.62695652
   0.16659019  0.83329101  0.96064135
   0.41668049  0.08334158  0.29320851
   0.41685369  0.08372555  0.62695652
   0.41670899  0.08340981  0.96064135
   0.41614496  0.33312417  0.29474480
   0.41929258  0.33553301  0.62734921
   0.41766377  0.33391931  0.96049678
   0.41610270  0.58298925  0.29472984
   0.41918515  0.58385144  0.62735706
   0.41764184  0.58374886  0.96050337
   0.41666438  0.83333562  0.29319834
   0.41679796  0.83320204  0.62696820
   0.41668947  0.83331053  0.96066089
   0.66695145  0.08348027  0.29329284
   0.66612324  0.08305095  0.62691054
   0.66672064  0.08336034  0.96053732
   0.66702477  0.33313435  0.29474655
   0.66628583  0.33539687  0.62734775
   0.66628812  0.33389998  0.96049874
   0.66664408  0.58335592  0.29899598
   0.66667023  0.58332977  0.96220646
   0.66701075  0.83389730  0.29472984
   0.66614856  0.83081485  0.62735706
   0.66625114  0.83235816  0.96050337
   0.91680533  0.08356502  0.29356387
   0.91625569  0.08248234  0.62660327
   0.91658855  0.08314745  0.96057570
   0.91681586  0.33318414  0.29356305
   0.91633348  0.33366652  0.62661634
   0.91659725  0.33340275  0.96058571
   0.91686565  0.58297523  0.29474655
   0.91460313  0.58371417  0.62734775
   0.91610002  0.58371188  0.96049874
   0.91687583  0.83385504  0.29474480
   0.91446699  0.83070742  0.62734921
   0.91608069  0.83233623  0.96049678
   0.08333917  0.16666082  0.12704513
   0.08366840  0.16633159  0.46005051
   0.08331714  0.16668285  0.79356781
   0.08334536  0.41666877  0.12705675
   0.08371129  0.41734787  0.46005468
   0.08334731  0.41663458  0.79357846
   0.08330285  0.66664331  0.12705441
   0.08363797  0.66747995  0.45967199
   0.08279722  0.66651401  0.79415475
   0.08329493  0.91665901  0.12704522
   0.08358631  0.91613852  0.45967952
   0.08275511  0.91626610  0.79412983
   0.33334099  0.16670506  0.12704522
   0.33386148  0.16641368  0.45967952
   0.33373390  0.16724488  0.79412983
   0.33320600  0.41660103  0.12727956
   0.33451440  0.41727018  0.46024022
   0.33377218  0.41690953  0.79441921
   0.33333178  0.66664960  0.12705379
   0.33382667  0.66751544  0.45967063
   0.33369302  0.66656300  0.79416208
   0.33332031  0.91667969  0.12694014
   0.33330250  0.91669750  0.45959905
   0.33330146  0.91669854  0.79380838
   0.58335669  0.16669714  0.12705441
   0.58252005  0.16636202  0.45967199
   0.58348599  0.16720277  0.79415475
   0.58339350  0.41676661  0.12989386
   0.58718369  0.42418028  0.46494044
   0.58452686  0.41898132  0.79087047
   0.58337072  0.66662928  0.12989034
   0.58698959  0.66301041  0.46499441
   0.58444035  0.66555965  0.79088510
   0.58335040  0.91666822  0.12705379
   0.58248456  0.91617333  0.45967063
   0.58343700  0.91630698  0.79416208
   0.83333123  0.16665464  0.12705675
   0.83265213  0.16628870  0.46005468
   0.83336542  0.16665268  0.79357846
   0.83340881  0.41659119  0.12728970
   0.83283149  0.41716851  0.46024758
   0.83315836  0.41684164  0.79441209
   0.83323339  0.66660650  0.12989386
   0.82581972  0.66281631  0.46494044
   0.83101868  0.66547314  0.79087047
   0.83339897  0.91679400  0.12727956
   0.83272982  0.91548560  0.46024022
   0.83309047  0.91622782  0.79441921
   0.66662344  0.58337656  0.50274599
 
 position of ions in cartesian coordinates  (Angst):
   1.62265094  0.93873541  2.58545415
   1.62631637  0.93661918  7.80898697
   1.62202282  0.93909806 13.01663340
  -0.00631012  3.74725115  2.59004394
  -0.01527519  3.74209287  7.80508358
  -0.00188468  3.74966958 13.01831265
  -1.62425477  6.56237928  2.58555564
  -1.62431677  6.56676950  7.80918695
  -1.62442951  6.56154420 13.01726275
  -3.24588427  9.37939462  2.58490210
  -3.23556918  9.38542487  7.81348255
  -3.24688347  9.37900939 13.02061670
   4.87291168  0.93468099  2.58490210
   4.87284687  0.92273273  7.81348255
   4.87274570  0.93573894 13.02061670
   3.23255275  3.73917398  2.58990187
   3.16002219  3.67688120  7.84789422
   3.25948249  3.75819700 13.01291975
   1.60578529  6.55656093  2.58973272
   1.51447372  6.52504113  7.84777133
   1.63479567  6.57071679 13.01302493
  -0.00290004  9.37954128  2.58474632
  -0.01373192  9.38579507  7.81385659
  -0.00285128  9.37951314 13.02106926
   8.12333352  0.93881632  2.58555564
   8.11950048  0.93667490  7.80918695
   8.12396934  0.93938518 13.01726275
   6.51348168  3.73902408  2.58993767
   6.58690675  3.67650839  7.84787416
   6.48689266  3.75773341 13.01298301
   4.87275269  6.56458201  2.60027942
   4.87241600  6.56477639 13.05171105
   3.24621557  9.39786910  2.58973272
   3.22785673  9.49270713  7.84777133
   3.24846142  9.36566744 13.01302493
  11.37027855  0.94519921  2.59004394
  11.37026322  0.95554233  7.80508358
  11.37039685  0.94015745 13.01831265
   9.75261124  3.74719449  2.59007204
   9.76273156  3.74135152  7.80535822
   9.74884089  3.74937131 13.01841501
   8.14012237  6.55644799  2.58993767
   8.23097508  6.52411786  7.84787416
   8.11062510  6.57012008 13.01298301
   6.49952820  9.39774062  2.58990187
   6.51721006  9.49170032  7.84789422
   6.49651865  9.36490728 13.01291975
  -0.00058796  1.87591279 15.61028973
  -0.00014494  1.87565701  5.19048883
   0.00028785  1.87540714 10.41514324
  -1.62414209  4.68819316 15.61049744
  -1.62402984  4.68850898  5.19054064
  -1.62366307  4.68955399 10.41535796
  -3.24845965  7.50213719 15.60705943
  -3.23118174  7.51114460  5.18299913
  -3.25038699  7.50863182 10.43071244
  -4.87302206 10.31571203 15.60707511
  -4.85647023 10.32623307  5.18301139
  -4.86903395 10.31066058 10.43022504
   3.24846808  1.87566487 15.60707511
   3.24763250  1.85607005  5.18301139
   3.25483682  1.87473679 10.43022504
   1.62424249  4.68880309 15.60716474
   1.60663496  4.67855019  5.18996865
   1.61860694  4.68641925 10.44006154
  -0.00004820  7.50203529 15.60697141
  -0.01770165  7.51133676  5.18287452
   0.00115993  7.50941495 10.43088821
  -1.62462312 10.31584350 15.60965448
  -1.62444422 10.31574021  5.18647459
  -1.62533813 10.31625631 10.41898264
   6.49737681  1.87553998 15.60705943
   6.49821512  1.85607316  5.18299913
   6.49078862  1.87396178 10.43071244
   4.87293159  4.68460751  0.02616717
   4.87312338  4.65192059  5.08731782
   4.87376556  4.78523860 10.38309312
   3.24493375  7.50440366  0.02611259
   3.21559065  7.52134491  5.08760546
   3.33069287  7.45489061 10.38365167
   1.62449397 10.31582445 15.60697141
   1.60761193 10.32646205  5.18287452
   1.61870706 10.31108834 10.43088821
   9.74648284  1.87581172 15.61049744
   9.74626546  1.87555660  5.19054064
   9.74554384  1.87471646 10.41535796
   8.12112353  4.68913432 15.60730231
   8.13986579  4.67831347  5.19000487
   8.12844930  4.68490478 10.43955949
   6.50094801  7.50441426  0.02616717
   6.52935161  7.52059162  5.08731782
   6.41421591  7.45337647 10.38309312
   4.87297010 10.31576354 15.60716474
   4.87304561 10.33613856  5.18996865
   4.87221679 10.32183599 10.44006154
   1.62191105  0.93916259  4.57885279
   1.62953645  0.93476007  9.78717492
   1.62392663  0.93799890 14.99547364
  -0.00210966  3.74958622  4.58313046
   0.00838798  3.75577163  9.78255437
   0.00190803  3.75202574 14.99654490
  -1.62435318  6.56130189  4.57889913
  -1.62415545  6.57062210  9.78735152
  -1.62429435  6.56389936 14.99594572
  -3.24860567  9.37771114  4.57758250
  -3.25246980  9.37576206  9.78806932
  -3.24930698  9.37739041 14.99756988
   4.87300892  0.93787952  4.57758250
   4.87276480  0.94220050  9.78806932
   4.87293602  0.93864725 14.99756988
   3.24316836  3.74879292  4.60156719
   3.26841910  3.77590060  9.79420006
   3.25773830  3.75774092 14.99531278
   1.61920170  6.56063456  4.60133357
   1.65365445  6.57033715  9.79432271
   1.63426656  6.56918283 14.99541571
  -0.00004417  9.37789245  4.57742374
   0.00255941  9.37638927  9.78825168
   0.00044478  9.37761015 14.99787485
   8.12421736  0.93944023  4.57889913
   8.11624468  0.93460889  9.78735152
   8.12199730  0.93809056 14.99594572
   6.50312351  3.74890740  4.60159452
   6.47882132  3.77436862  9.79417735
   6.48857680  3.75752336 14.99534346
   4.87244287  6.56476088  4.66793671
   4.87295258  6.56446660 15.02200433
   3.24939590  9.38421334  4.60133357
   3.25821959  9.34952508  9.79432271
   3.24952531  9.36689265 14.99541571
  11.37035656  0.94039397  4.58313046
  11.37024865  0.92821004  9.78255437
  11.37025271  0.93569479 14.99654490
   9.74867376  3.74946780  4.58311770
   9.73927148  3.75489621  9.78275855
   9.74441275  3.75192789 14.99670126
   8.12638407  6.56047676  4.60159452
   8.09218292  6.56879247  9.79417735
   8.11164908  6.56876660 14.99534346
   6.49650576  9.38373776  4.60156719
   6.48565519  9.34831615  9.79420006
   6.49604154  9.36664583 14.99531278
   0.00011393  1.87550755  1.98343346
   0.00653114  1.87180257  7.18232628
  -0.00031553  1.87575550 12.38921134
  -1.62415153  4.68895703  1.98361481
  -1.62380863  4.69659924  7.18239136
  -1.62390403  4.68857230 12.38937749
  -3.24883258  7.50203052  1.98357834
  -3.24991371  7.51144561  7.17641682
  -3.25456283  7.50057545 12.39837466
  -4.87333171 10.31556724  1.98343485
  -4.86616369 10.30970995  7.17653448
  -4.87779341 10.31114559 12.39798558
   3.24843865  1.87600544  1.98343485
   3.25709522  1.87272640  7.17653448
   3.25003705  1.88208021 12.39798558
   1.62306633  4.68819468  1.98709337
   1.63572051  4.69572497  7.18528812
   1.62841909  4.69166636 12.40250340
   0.00009107  7.50210127  1.98356867
   0.00089635  7.51184498  7.17639561
   0.00534771  7.50112679 12.39848901
  -1.62454772 10.31579996  1.98179433
  -1.62489483 10.31600037  7.17527818
  -1.62491515 10.31601210 12.39296701
   6.49728272  1.87591628  1.98357834
   6.48858845  1.87214502  7.17641682
   6.49567773  1.88160635 12.39837466
   4.87301554  4.69005806  2.02790798
   4.87409866  4.77348740  7.25866817
   4.87335349  4.71498116 12.34710036
   3.24931761  7.50187264  2.02785296
   3.31985483  7.46114796  7.25951069
   3.27016642  7.48983557 12.34732876
   1.62450646 10.31567085  1.98356867
   1.61647080 10.31010160  7.17639561
   1.62797870 10.31160571 12.39848901
   9.74581659  1.87543796  1.98361481
   9.73936969  1.87131990  7.18239136
   9.74627353  1.87541598 12.38937749
   8.12294267  4.68808404  1.98725175
   8.11168987  4.69458085  7.18540293
   8.11806115  4.69090239 12.40239228
   6.49626967  7.50161628  2.02790798
   6.42455929  7.45896360  7.25866817
   6.47485461  7.48886206 12.34710036
   4.87290892 10.31708634  1.98709337
   4.87271458 10.30236235  7.18528812
   4.87257874 10.31071487 12.40250340
   4.87204063  6.56499312  7.84888988
 


--------------------------------------------------------------------------------------------------------


 use parallel FFT for orbitals z direction half grid
 k-point   1 :   0.0000 0.0000 0.0000  plane waves:   20744

 maximum and minimum number of plane-waves per node :      5189     5183

 maximum number of plane-waves:     20744
 maximum index in each direction: 
   IXMAX=   21   IYMAX=   21   IZMAX=   25
   IXMIN=  -21   IYMIN=  -21   IZMIN=    0


 real space projection operators:
  total allocation   :      30066.92 KBytes
  max/ min on nodes  :       7664.22       7429.91


 parallel 3D FFT for wavefunctions:
    minimum data exchange during FFTs selected (reduces bandwidth)
 parallel 3D FFT for charge:
    minimum data exchange during FFTs selected (reduces bandwidth)

 
 Radii for the augmentation spheres in the non-local exchange
 for species   1 augmentation radius   1.190 (default was   0.952)
       energy cutoff for augmentation   1600.0
 for species   2 augmentation radius   0.902 (default was   0.722)
       energy cutoff for augmentation   1600.0
 for species   3 augmentation radius   1.338 (default was   1.070)
       energy cutoff for augmentation   1600.0

 real space projection operators:
  total allocation   :      22043.09 KBytes
  max/ min on nodes  :       5548.72       5427.38

 Maximum index for augmentation-charges in exchange          367
[...]
      6.42491      7.45920      7.25869         0.005450      0.003605      0.003690
      6.47482      7.48883     12.34721        -0.000432     -0.001087      0.002280
      4.87290     10.31699      1.98711         0.000193     -0.002217      0.000765
      4.87268     10.30243      7.18529        -0.000857      0.001845      0.000202
      4.87256     10.31072     12.40247        -0.000374     -0.000066     -0.000960
      4.87214      6.56494      7.84994         0.000363     -0.000210      0.007242
 -----------------------------------------------------------------------------------
    total drift:                                0.004452     -0.002739      0.036980


--------------------------------------------------------------------------------------------------------



  FREE ENERGIE OF THE ION-ELECTRON SYSTEM (eV)
  ---------------------------------------------------
  free  energy   TOTEN  =     -1220.92795754 eV

  energy  without entropy=    -1220.92795754  energy(sigma->0) =    -1220.92795754
 
 d Force = 0.1470332E-04[ 0.951E-05, 0.199E-04]  d Energy = 0.1488926E-04-0.186E-06
 d Force = 0.4534795E-01[ 0.453E-01, 0.454E-01]  d Ewald  = 0.4534795E-01-0.148E-08


--------------------------------------------------------------------------------------------------------


    POTLOK:  cpu time      0.2434: real time      0.2445


--------------------------------------------------------------------------------------------------------


 Quasi-Newton relaxation of ions (Broydens 2nd method)
  g(Force)  = 0.298E-04   g(Stress)= 0.000E+00

 retain information from N=  2 steps
 eigenvalues of (default step * inverse Hessian matrix)
  average eigenvalue of G=   1.6799
 eigenvalue spectrum of G is  0.8907  2.4692


--------------------------------------------------------------------------------------------------------


  
 reached required accuracy - stopping structural energy minimisation
 writing wavefunctions
     LOOP+:  cpu time   2142.7181: real time   2164.1909
    4ORBIT:  cpu time      0.0000: real time      0.0000



 total charge

# of ion       s       p       d       tot
------------------------------------------
    1        0.412   0.479   9.952  10.843
    2        0.411   0.475   9.949  10.836
    3        0.410   0.475   9.950  10.834
    4        0.412   0.479   9.951  10.842
    5        0.411   0.474   9.948  10.833
    6        0.410   0.476   9.950  10.836
    7        0.412   0.479   9.952  10.843
    8        0.411   0.476   9.949  10.836
    9        0.410   0.475   9.950  10.835
   10        0.412   0.479   9.952  10.842
   11        0.412   0.479   9.952  10.842
   12        0.411   0.477   9.950  10.838
   13        0.412   0.479   9.952  10.842
   14        0.412   0.479   9.952  10.842
   15        0.411   0.477   9.950  10.838
   16        0.412   0.478   9.951  10.840
   17        0.419   0.474   9.946  10.838
   18        0.409   0.472   9.948  10.829
   19        0.412   0.478   9.951  10.840
   20        0.419   0.474   9.946  10.838
   21        0.409   0.472   9.948  10.829
   22        0.412   0.479   9.952  10.842
   23        0.412   0.479   9.952  10.842
   24        0.411   0.477   9.950  10.838
   25        0.412   0.479   9.952  10.843
   26        0.411   0.476   9.949  10.836
   27        0.410   0.475   9.950  10.835
   28        0.412   0.478   9.951  10.840
   29        0.418   0.474   9.946  10.838
   30        0.409   0.472   9.948  10.829
   31        0.411   0.471   9.947  10.830
   32        0.412   0.480   9.951  10.842
   33        0.412   0.478   9.951  10.840
   34        0.419   0.474   9.946  10.838
   35        0.409   0.472   9.948  10.829
   36        0.412   0.479   9.951  10.842
   37        0.411   0.474   9.948  10.833
   38        0.410   0.476   9.950  10.836
   39        0.412   0.479   9.951  10.842
   40        0.411   0.474   9.948  10.833
   41        0.410   0.476   9.950  10.836
   42        0.412   0.478   9.951  10.840
   43        0.418   0.474   9.946  10.838
   44        0.409   0.472   9.948  10.829
   45        0.412   0.478   9.951  10.840
   46        0.419   0.474   9.946  10.838
   47        0.409   0.472   9.948  10.829
   48        0.411   0.478   9.951  10.840
   49        0.412   0.479   9.951  10.842
   50        0.409   0.472   9.948  10.830
   51        0.411   0.478   9.951  10.840
   52        0.412   0.479   9.951  10.842
   53        0.409   0.472   9.948  10.830
   54        0.410   0.476   9.950  10.837
   55        0.412   0.480   9.952  10.844
   56        0.410   0.471   9.947  10.827
   57        0.410   0.476   9.950  10.837
   58        0.412   0.480   9.952  10.844
   59        0.410   0.470   9.946  10.826
   60        0.410   0.476   9.950  10.837
   61        0.412   0.480   9.952  10.844
   62        0.410   0.470   9.946  10.826
   63        0.410   0.475   9.950  10.834
   64        0.412   0.480   9.953  10.845
   65        0.411   0.476   9.949  10.835
   66        0.410   0.476   9.950  10.837
   67        0.412   0.480   9.952  10.844
   68        0.410   0.471   9.947  10.827
   69        0.411   0.479   9.951  10.841
   70        0.412   0.478   9.951  10.841
   71        0.410   0.473   9.949  10.832
   72        0.410   0.476   9.950  10.837
   73        0.412   0.480   9.952  10.844
   74        0.410   0.471   9.947  10.827
   75        0.410   0.475   9.949  10.834
   76        0.421   0.469   9.946  10.836
   77        0.434   0.438   9.895  10.768
   78        0.410   0.475   9.949  10.834
   79        0.421   0.469   9.946  10.836
   80        0.435   0.438   9.896  10.768
   81        0.410   0.476   9.950  10.837
   82        0.412   0.480   9.952  10.844
   83        0.410   0.471   9.947  10.827
   84        0.411   0.478   9.951  10.840
   85        0.412   0.479   9.951  10.842
   86        0.409   0.472   9.948  10.830
   87        0.410   0.475   9.950  10.834
   88        0.412   0.480   9.952  10.845
   89        0.411   0.476   9.949  10.835
   90        0.410   0.475   9.949  10.834
   91        0.421   0.469   9.946  10.836
   92        0.434   0.438   9.895  10.768
   93        0.410   0.475   9.950  10.834
   94        0.412   0.480   9.953  10.845
   95        0.411   0.476   9.949  10.835
   96        1.575   3.531   0.000   5.106
   97        1.576   3.521   0.000   5.097
   98        1.575   3.529   0.000   5.104
   99        1.576   3.531   0.000   5.106
  100        1.576   3.525   0.000   5.100
  101        1.575   3.529   0.000   5.104
  102        1.575   3.531   0.000   5.106
  103        1.576   3.521   0.000   5.097
  104        1.575   3.529   0.000   5.104
  105        1.575   3.530   0.000   5.106
  106        1.575   3.527   0.000   5.102
  107        1.575   3.530   0.000   5.105
  108        1.575   3.530   0.000   5.106
  109        1.575   3.527   0.000   5.102
  110        1.575   3.530   0.000   5.105
  111        1.576   3.530   0.000   5.106
  112        1.578   3.518   0.000   5.096
  113        1.575   3.527   0.000   5.102
  114        1.576   3.530   0.000   5.106
  115        1.578   3.518   0.000   5.096
  116        1.575   3.527   0.000   5.102
  117        1.575   3.530   0.000   5.106
  118        1.575   3.527   0.000   5.102
  119        1.575   3.530   0.000   5.105
  120        1.575   3.531   0.000   5.106
  121        1.576   3.521   0.000   5.097
  122        1.575   3.529   0.000   5.104
  123        1.576   3.530   0.000   5.106
  124        1.578   3.518   0.000   5.096
  125        1.575   3.527   0.000   5.102
  126        1.576   3.525   0.000   5.101
  127        1.575   3.527   0.000   5.102
  128        1.576   3.530   0.000   5.106
  129        1.578   3.518   0.000   5.096
  130        1.575   3.527   0.000   5.102
  131        1.576   3.531   0.000   5.106
  132        1.576   3.525   0.000   5.100
  133        1.575   3.529   0.000   5.104
  134        1.576   3.531   0.000   5.106
  135        1.576   3.525   0.000   5.100
  136        1.575   3.529   0.000   5.104
  137        1.576   3.530   0.000   5.106
  138        1.578   3.518   0.000   5.096
  139        1.575   3.527   0.000   5.102
  140        1.576   3.530   0.000   5.106
  141        1.578   3.518   0.000   5.096
  142        1.575   3.527   0.000   5.102
  143        1.575   3.531   0.000   5.106
  144        1.576   3.526   0.000   5.102
  145        1.575   3.528   0.000   5.103
  146        1.575   3.531   0.000   5.106
  147        1.576   3.526   0.000   5.102
  148        1.575   3.528   0.000   5.103
  149        1.575   3.530   0.000   5.106
  150        1.576   3.530   0.000   5.106
  151        1.575   3.528   0.000   5.103
  152        1.575   3.530   0.000   5.106
  153        1.576   3.530   0.000   5.106
  154        1.575   3.528   0.000   5.103
  155        1.575   3.530   0.000   5.106
  156        1.576   3.530   0.000   5.106
  157        1.575   3.528   0.000   5.103
  158        1.575   3.529   0.000   5.105
  159        1.576   3.528   0.000   5.105
  160        1.575   3.530   0.000   5.105
  161        1.575   3.530   0.000   5.106
  162        1.576   3.530   0.000   5.106
  163        1.575   3.528   0.000   5.103
  164        1.575   3.532   0.000   5.107
  165        1.575   3.530   0.000   5.106
  166        1.575   3.528   0.000   5.103
  167        1.575   3.530   0.000   5.106
  168        1.576   3.530   0.000   5.106
  169        1.575   3.528   0.000   5.103
  170        1.576   3.525   0.000   5.101
  171        1.599   3.521   0.000   5.120
  172        1.576   3.521   0.000   5.097
  173        1.576   3.526   0.000   5.101
  174        1.599   3.521   0.000   5.120
  175        1.576   3.521   0.000   5.098
  176        1.575   3.530   0.000   5.106
  177        1.576   3.530   0.000   5.106
  178        1.575   3.528   0.000   5.103
  179        1.575   3.531   0.000   5.106
  180        1.576   3.526   0.000   5.102
  181        1.575   3.528   0.000   5.103
  182        1.575   3.529   0.000   5.105
  183        1.576   3.528   0.000   5.105
  184        1.575   3.530   0.000   5.105
  185        1.576   3.525   0.000   5.101
  186        1.599   3.521   0.000   5.120
  187        1.576   3.521   0.000   5.097
  188        1.575   3.529   0.000   5.105
  189        1.576   3.528   0.000   5.105
  190        1.575   3.530   0.000   5.105
  191        2.205   6.066   2.338  10.610
--------------------------------------------------
tot        191.138 386.259 947.3801524.778



 magnetization (x)

# of ion       s       p       d       tot
------------------------------------------
    1        0.003   0.000  -0.000   0.003
    2        0.004   0.000  -0.000   0.004
    3        0.003   0.000  -0.000   0.003
    4        0.004   0.000  -0.000   0.003
    5        0.004   0.000  -0.000   0.004
    6        0.003   0.000  -0.000   0.003
    7        0.003   0.000  -0.000   0.003
    8        0.004   0.000  -0.000   0.004
    9        0.003   0.000  -0.000   0.003
   10        0.003   0.000  -0.000   0.003
   11        0.004   0.000  -0.000   0.004
   12        0.003   0.000  -0.000   0.003
   13        0.003   0.000  -0.000   0.003
   14        0.004   0.000  -0.000   0.004
   15        0.003   0.000  -0.000   0.003
   16        0.004   0.000  -0.000   0.004
   17        0.005   0.001  -0.000   0.005
   18        0.003   0.000  -0.000   0.003
   19        0.004   0.000  -0.000   0.004
   20        0.005   0.001  -0.000   0.005
   21        0.003   0.000  -0.000   0.003
   22        0.003   0.000  -0.000   0.003
   23        0.004   0.000  -0.000   0.004
   24        0.003   0.000  -0.000   0.003
   25        0.003   0.000  -0.000   0.003
   26        0.004   0.000  -0.000   0.004
   27        0.003   0.000  -0.000   0.003
   28        0.004   0.000  -0.000   0.004
   29        0.005   0.001  -0.000   0.005
   30        0.003   0.000  -0.000   0.003
   31        0.003   0.000  -0.000   0.003
   32        0.003   0.000  -0.000   0.004
   33        0.004   0.000  -0.000   0.004
   34        0.005   0.001  -0.000   0.005
   35        0.003   0.000  -0.000   0.003
   36        0.004   0.000  -0.000   0.003
   37        0.004   0.000  -0.000   0.004
   38        0.003   0.000  -0.000   0.003
   39        0.004   0.000  -0.000   0.003
   40        0.004   0.000  -0.000   0.004
   41        0.003   0.000  -0.000   0.003
   42        0.004   0.000  -0.000   0.004
   43        0.005   0.001  -0.000   0.005
   44        0.003   0.000  -0.000   0.003
   45        0.004   0.000  -0.000   0.004
   46        0.005   0.001  -0.000   0.005
   47        0.003   0.000  -0.000   0.003
   48        0.003   0.000  -0.000   0.003
   49        0.004   0.000  -0.000   0.004
   50        0.003   0.000  -0.000   0.003
   51        0.003   0.000  -0.000   0.003
   52        0.004   0.000  -0.000   0.004
   53        0.003   0.000  -0.000   0.003
   54        0.003   0.000  -0.000   0.003
   55        0.004   0.000  -0.000   0.004
   56        0.003   0.000  -0.000   0.003
   57        0.003   0.000  -0.000   0.003
   58        0.004   0.000  -0.000   0.004
   59        0.003   0.000  -0.000   0.003
   60        0.003   0.000  -0.000   0.003
   61        0.004   0.000  -0.000   0.004
   62        0.003   0.000  -0.000   0.003
   63        0.003   0.000  -0.000   0.003
   64        0.004   0.000  -0.000   0.004
   65        0.003   0.000  -0.000   0.003
   66        0.003   0.000  -0.000   0.003
   67        0.004   0.000  -0.000   0.004
   68        0.003   0.000  -0.000   0.003
   69        0.003   0.000  -0.000   0.003
   70        0.004   0.000  -0.000   0.004
   71        0.003   0.000  -0.000   0.003
   72        0.003   0.000  -0.000   0.003
   73        0.004   0.000  -0.000   0.004
   74        0.003   0.000  -0.000   0.003
   75        0.003   0.000  -0.000   0.003
   76        0.006   0.001   0.000   0.007
   77        0.003   0.004   0.002   0.010
   78        0.003   0.000  -0.000   0.003
   79        0.006   0.001   0.000   0.007
   80        0.003   0.004   0.002   0.010
   81        0.003   0.000  -0.000   0.003
   82        0.004   0.000  -0.000   0.004
   83        0.003   0.000  -0.000   0.003
   84        0.003   0.000  -0.000   0.003
   85        0.004   0.000  -0.000   0.004
   86        0.003   0.000  -0.000   0.003
   87        0.003   0.000  -0.000   0.003
   88        0.004   0.000  -0.000   0.004
   89        0.003   0.000  -0.000   0.003
   90        0.003   0.000  -0.000   0.003
   91        0.006   0.001   0.000   0.007
   92        0.003   0.004   0.002   0.010
   93        0.003   0.000  -0.000   0.003
   94        0.004   0.000  -0.000   0.004
   95        0.003   0.000  -0.000   0.003
   96        0.002  -0.002   0.000   0.001
   97        0.002  -0.001   0.000   0.001
   98        0.002  -0.001   0.000   0.001
   99        0.003  -0.002   0.000   0.001
  100        0.002  -0.001   0.000   0.001
  101        0.002  -0.001   0.000   0.001
  102        0.002  -0.002   0.000   0.001
  103        0.002  -0.001   0.000   0.001
  104        0.002  -0.001   0.000   0.001
  105        0.002  -0.002   0.000   0.001
  106        0.002  -0.001   0.000   0.001
  107        0.002  -0.001   0.000   0.001
  108        0.002  -0.002   0.000   0.001
  109        0.002  -0.001   0.000   0.001
  110        0.002  -0.001   0.000   0.001
  111        0.003  -0.002   0.000   0.001
  112        0.002   0.004   0.000   0.006
  113        0.002  -0.001   0.000   0.000
  114        0.003  -0.002   0.000   0.001
  115        0.002   0.004   0.000   0.006
  116        0.002  -0.001   0.000   0.000
  117        0.002  -0.002   0.000   0.001
  118        0.002  -0.001   0.000   0.001
  119        0.002  -0.001   0.000   0.001
  120        0.002  -0.002   0.000   0.001
  121        0.002  -0.001   0.000   0.001
  122        0.002  -0.001   0.000   0.001
  123        0.003  -0.002   0.000   0.001
  124        0.002   0.004   0.000   0.006
  125        0.002  -0.001   0.000   0.000
  126        0.002  -0.001   0.000   0.001
  127        0.002  -0.001   0.000   0.001
  128        0.003  -0.002   0.000   0.001
  129        0.002   0.004   0.000   0.006
  130        0.002  -0.001   0.000   0.000
  131        0.003  -0.002   0.000   0.001
  132        0.002  -0.001   0.000   0.001
  133        0.002  -0.001   0.000   0.001
  134        0.003  -0.002   0.000   0.001
  135        0.002  -0.001   0.000   0.001
  136        0.002  -0.001   0.000   0.001
  137        0.003  -0.002   0.000   0.001
  138        0.002   0.004   0.000   0.006
  139        0.002  -0.001   0.000   0.000
  140        0.003  -0.002   0.000   0.001
  141        0.002   0.004   0.000   0.006
  142        0.002  -0.001   0.000   0.000
  143        0.002  -0.001   0.000   0.001
  144        0.003  -0.002   0.000   0.001
  145        0.002  -0.001   0.000   0.001
  146        0.002  -0.001   0.000   0.001
  147        0.003  -0.002   0.000   0.001
  148        0.002  -0.001   0.000   0.001
  149        0.002  -0.002   0.000   0.001
  150        0.003  -0.002   0.000   0.000
  151        0.002  -0.001   0.000   0.001
  152        0.002  -0.002   0.000   0.001
  153        0.003  -0.002   0.000   0.001
  154        0.002  -0.001   0.000   0.001
  155        0.002  -0.002   0.000   0.001
  156        0.003  -0.002   0.000   0.001
  157        0.002  -0.001   0.000   0.001
  158        0.002  -0.002   0.000   0.001
  159        0.003  -0.002   0.000   0.001
  160        0.002  -0.001   0.000   0.001
  161        0.002  -0.002   0.000   0.001
  162        0.003  -0.002   0.000   0.000
  163        0.002  -0.001   0.000   0.001
  164        0.002  -0.001   0.000   0.001
  165        0.003  -0.002   0.000   0.001
  166        0.002  -0.001   0.000   0.001
  167        0.002  -0.002   0.000   0.001
  168        0.003  -0.002   0.000   0.000
  169        0.002  -0.001   0.000   0.001
  170        0.002  -0.002   0.000   0.001
  171        0.001   0.004   0.000   0.006
  172        0.001  -0.003   0.000  -0.002
  173        0.002  -0.002   0.000   0.001
  174        0.001   0.004   0.000   0.006
  175        0.001  -0.003   0.000  -0.002
  176        0.002  -0.002   0.000   0.001
  177        0.003  -0.002   0.000   0.000
  178        0.002  -0.001   0.000   0.001
  179        0.002  -0.001   0.000   0.001
  180        0.003  -0.002   0.000   0.001
  181        0.002  -0.001   0.000   0.001
  182        0.002  -0.002   0.000   0.001
  183        0.003  -0.002   0.000   0.001
  184        0.002  -0.001   0.000   0.001
  185        0.002  -0.002   0.000   0.001
  186        0.001   0.004   0.000   0.006
  187        0.001  -0.003   0.000  -0.002
  188        0.002  -0.002   0.000   0.001
  189        0.003  -0.002   0.000   0.001
  190        0.002  -0.001   0.000   0.001
  191        0.011   0.012   0.675   0.697
--------------------------------------------------
tot          0.551  -0.051   0.663   1.162
 

 total amount of memory used by VASP MPI-rank0   245680. kBytes
=======================================================================

   base      :      30000. kBytes
   nonlr-proj:      16086. kBytes
   fftplans  :       3819. kBytes
   grid      :       8407. kBytes
   one-center:        746. kBytes
   HF        :        129. kBytes
   wavefun   :       7416. kBytes
   fock_wrk  :     179077. kBytes
 
  
  
 General timing and accounting informations for this job:
 ========================================================
  
                  Total CPU time used (sec):     8817.757
                            User time (sec):     8784.446
                          System time (sec):       33.312
                         Elapsed time (sec):     8906.525
  
                   Maximum memory used (kb):     1017368.
                   Average memory used (kb):          N/A
  
                          Minor page faults:      9412092
                          Major page faults:         1593
                 Voluntary context switches:        25208
