nqpoint: 240    
npath: 4      
segment_nqpoint:
- 60
- 60
- 60
- 60
labels:
- [ '$\Gamma$', 'K' ]
- [ 'K', 'M' ]
- [ 'M', '$\Gamma$' ]
- [ '$\Gamma$', 'A' ]
reciprocal_lattice:
- [   0.31043131,   0.17922760,   0.00000000 ] # a*
- [   0.00000000,   0.35845520,   0.00000000 ] # b*
- [   0.00000000,   0.00000000,   0.19282900 ] # c*
natom: 4      
lattice:
- [     3.221324539163331,    -0.000000000004909,     0.000000000000000 ] # a
- [    -1.610662269090113,     2.789748884037095,     0.000000000000000 ] # b
- [     0.000000000000000,     0.000000000000000,     5.185941965211812 ] # c
points:
- symbol: Zn # 1
  coordinates: [  0.666666999999997,  0.333333000000003,  0.500789757633841 ]
  mass: 65.380000
- symbol: Zn # 2
  coordinates: [  0.333333000000003,  0.666666999999997,  0.000789757633841 ]
  mass: 65.380000
- symbol: O  # 3
  coordinates: [  0.666666999999997,  0.333333000000003,  0.880910242366154 ]
  mass: 15.999400
- symbol: O  # 4
  coordinates: [  0.333333000000003,  0.666666999999997,  0.380910242366154 ]
  mass: 15.999400

phonon:
- q-position: [    0.0000000,    0.0000000,    0.0000000 ]
  distance:    0.0000000
  band:
  - # 1
    frequency:   -0.0000001426
    eigenvector:
    - # atom 1
      - [ -0.58154679951684,  0.00000000000000 ]
      - [ -0.24088944268434,  0.00000000000000 ]
      - [ -0.07398855565485,  0.00000000000000 ]
    - # atom 2
      - [ -0.58154679951684,  0.00000000000000 ]
      - [ -0.24088944268434,  0.00000000000000 ]
      - [ -0.07398855565485,  0.00000000000000 ]
    - # atom 3
      - [ -0.28768290795312,  0.00000000000000 ]
      - [ -0.11916457183534,  0.00000000000000 ]
      - [ -0.03660108328981,  0.00000000000000 ]
    - # atom 4
      - [ -0.28768290795312,  0.00000000000000 ]
      - [ -0.11916457183534,  0.00000000000000 ]
      - [ -0.03660108328981,  0.00000000000000 ]
  - # 2
    frequency:   -0.0000000559
    eigenvector:
    - # atom 1
      - [ -0.24535130592108,  0.00000000000000 ]
      - [  0.58370853801978,  0.00000000000000 ]
      - [  0.02803193390719,  0.00000000000000 ]
    - # atom 2
      - [ -0.24535130592108,  0.00000000000000 ]
      - [  0.58370853801978,  0.00000000000000 ]
      - [  0.02803193390719,  0.00000000000000 ]
    - # atom 3
      - [ -0.12137179194540,  0.00000000000000 ]
      - [  0.28875228916075,  0.00000000000000 ]
      - [  0.01386699792462,  0.00000000000000 ]
    - # atom 4
      - [ -0.12137179194540,  0.00000000000000 ]
      - [  0.28875228916075,  0.00000000000000 ]
      - [  0.01386699792462,  0.00000000000000 ]
  - # 3
    frequency:    0.0000002709
    eigenvector:
    - # atom 1
      - [  0.05748709983539,  0.00000000000000 ]
      - [  0.05436293810110,  0.00000000000000 ]
      - [ -0.62883910049112,  0.00000000000000 ]
    - # atom 2
      - [  0.05748709983539,  0.00000000000000 ]
      - [  0.05436293810110,  0.00000000000000 ]
      - [ -0.62883910049112,  0.00000000000000 ]
    - # atom 3
      - [  0.02843804843252,  0.00000000000000 ]
      - [  0.02689257017800,  0.00000000000000 ]
      - [ -0.31107773478284,  0.00000000000000 ]
    - # atom 4
      - [  0.02843804843252,  0.00000000000000 ]
      - [  0.02689257017801,  0.00000000000000 ]
      - [ -0.31107773478284,  0.00000000000000 ]
  - # 4
    frequency:    3.5143268136
    eigenvector:
    - # atom 1
      - [ -0.62964489995895,  0.00000000000000 ]
      - [ -0.16871444884174,  0.00000000000000 ]
      - [ -0.00000000000000,  0.00000000000000 ]
    - # atom 2
      - [  0.62964490004623,  0.00000000000000 ]
      - [  0.16871444886513,  0.00000000000000 ]
      - [ -0.00000000000000,  0.00000000000000 ]
    - # atom 3
      - [  0.26467537798539,  0.00000000000000 ]
      - [  0.07092022903973,  0.00000000000000 ]
      - [ -0.00000000000000,  0.00000000000000 ]
    - # atom 4
      - [ -0.26467537816183,  0.00000000000000 ]
      - [ -0.07092022908700,  0.00000000000000 ]
      - [ -0.00000000000000,  0.00000000000000 ]
  - # 5
    frequency:    3.5143268147
    eigenvector:
    - # atom 1
      - [  0.16871444886513,  0.00000000000000 ]
      - [ -0.62964490004623,  0.00000000000000 ]
      - [ -0.00000000000000,  0.00000000000000 ]
    - # atom 2
      - [ -0.16871444884174,  0.00000000000000 ]
      - [  0.62964489995895,  0.00000000000000 ]
      - [ -0.00000000000000,  0.00000000000000 ]
    - # atom 3
      - [ -0.07092022908700,  0.00000000000000 ]
      - [  0.26467537816183,  0.00000000000000 ]
      - [ -0.00000000000000,  0.00000000000000 ]
    - # atom 4
      - [  0.07092022903973,  0.00000000000000 ]
      - [ -0.26467537798539,  0.00000000000000 ]
      - [ -0.00000000000000,  0.00000000000000 ]
  - # 6
    frequency:    8.0438852099
    eigenvector:
    - # atom 1
      - [  0.00000000000000,  0.00000000000000 ]
      - [  0.00000000000000,  0.00000000000000 ]
      - [  0.70306363987167,  0.00000000000000 ]
    - # atom 2
      - [ -0.00000000000000,  0.00000000000000 ]
      - [ -0.00000000000000,  0.00000000000000 ]
      - [ -0.70306363987167,  0.00000000000000 ]
    - # atom 3
      - [ -0.00000000000000,  0.00000000000000 ]
      - [ -0.00000000000000,  0.00000000000000 ]
      - [  0.07550839880698,  0.00000000000000 ]
    - # atom 4
      - [ -0.00000000000000,  0.00000000000000 ]
      - [  0.00000000000000,  0.00000000000000 ]
      - [ -0.07550839880698,  0.00000000000000 ]
  - # 7
    frequency:   11.5539895298
    eigenvector:
    - # atom 1
      - [  0.00000000000000,  0.00000000000000 ]
      - [  0.00000000000000,  0.00000000000000 ]
      - [  0.31353036536682,  0.00000000000000 ]
    - # atom 2
      - [  0.00000000000000,  0.00000000000000 ]
      - [ -0.00000000000000,  0.00000000000000 ]
      - [  0.31353036536682,  0.00000000000000 ]
    - # atom 3
      - [ -0.00000000000000,  0.00000000000000 ]
      - [ -0.00000000000000,  0.00000000000000 ]
      - [ -0.63379705741897,  0.00000000000000 ]
    - # atom 4
      - [ -0.00000000000000,  0.00000000000000 ]
      - [  0.00000000000000,  0.00000000000000 ]
      - [ -0.63379705741897,  0.00000000000000 ]
  - # 8
    frequency:   12.4810701674
    eigenvector:
    - # atom 1
      - [  0.30284709674761,  0.00000000000000 ]
      - [  0.08114755830075,  0.00000000000000 ]
      - [ -0.00000000000000,  0.00000000000000 ]
    - # atom 2
      - [  0.30284709607114,  0.00000000000000 ]
      - [  0.08114755811949,  0.00000000000000 ]
      - [ -0.00000000000000,  0.00000000000000 ]
    - # atom 3
      - [ -0.61220098459977,  0.00000000000000 ]
      - [ -0.16403860437529,  0.00000000000000 ]
      - [  0.00000000000000,  0.00000000000000 ]
    - # atom 4
      - [ -0.61220098570107,  0.00000000000000 ]
      - [ -0.16403860467038,  0.00000000000000 ]
      - [  0.00000000000000,  0.00000000000000 ]
  - # 9
    frequency:   12.4810701713
    eigenvector:
    - # atom 1
      - [  0.08114755811949,  0.00000000000000 ]
      - [ -0.30284709607114,  0.00000000000000 ]
      - [ -0.00000000000000,  0.00000000000000 ]
    - # atom 2
      - [  0.08114755830075,  0.00000000000000 ]
      - [ -0.30284709674761,  0.00000000000000 ]
      - [ -0.00000000000000,  0.00000000000000 ]
    - # atom 3
      - [ -0.16403860467038,  0.00000000000000 ]
      - [  0.61220098570107,  0.00000000000000 ]
      - [  0.00000000000000,  0.00000000000000 ]
    - # atom 4
      - [ -0.16403860437529,  0.00000000000000 ]
      - [  0.61220098459977,  0.00000000000000 ]
      - [  0.00000000000000,  0.00000000000000 ]
  - # 10
    frequency:   13.1872244216
    eigenvector:
    - # atom 1
      - [ -0.26467556786267,  0.00000000000000 ]
      - [ -0.07091951963111,  0.00000000000000 ]
      - [ -0.00000000000000,  0.00000000000000 ]
    - # atom 2
      - [  0.26467556842906,  0.00000000000000 ]
      - [  0.07091951978287,  0.00000000000000 ]
      - [ -0.00000000000000,  0.00000000000000 ]
    - # atom 3
      - [ -0.62964535274417,  0.00000000000000 ]
      - [ -0.16871276149579,  0.00000000000000 ]
      - [  0.00000000000000,  0.00000000000000 ]
    - # atom 4
      - [  0.62964535159921,  0.00000000000000 ]
      - [  0.16871276118900,  0.00000000000000 ]
      - [  0.00000000000000,  0.00000000000000 ]
  - # 11
    frequency:   13.1872244257
    eigenvector:
    - # atom 1
      - [ -0.07091951978287,  0.00000000000000 ]
      - [  0.26467556842906,  0.00000000000000 ]
      - [  0.00000000000000,  0.00000000000000 ]
    - # atom 2
      - [  0.07091951963111,  0.00000000000000 ]
      - [ -0.26467556786267,  0.00000000000000 ]
      - [ -0.00000000000000,  0.00000000000000 ]
    - # atom 3
      - [ -0.16871276118900,  0.00000000000000 ]
      - [  0.62964535159922,  0.00000000000000 ]
      - [  0.00000000000000,  0.00000000000000 ]
    - # atom 4
      - [  0.16871276149579,  0.00000000000000 ]
      - [ -0.62964535274417,  0.00000000000000 ]
      - [ -0.00000000000000,  0.00000000000000 ]
  - # 12
    frequency:   16.4882454639
    eigenvector:
    - # atom 1
      - [ -0.00000000000000,  0.00000000000000 ]
      - [ -0.00000000000000,  0.00000000000000 ]
      - [ -0.07550839880698,  0.00000000000000 ]
    - # atom 2
      - [  0.00000000000000,  0.00000000000000 ]
      - [ -0.00000000000000,  0.00000000000000 ]
      - [  0.07550839880698,  0.00000000000000 ]
    - # atom 3
      - [ -0.00000000000000,  0.00000000000000 ]
      - [ -0.00000000000000,  0.00000000000000 ]
      - [  0.70306363987167,  0.00000000000000 ]
    - # atom 4
      - [  0.00000000000000,  0.00000000000000 ]
      - [  0.00000000000000,  0.00000000000000 ]
      - [ -0.70306363987167,  0.00000000000000 ]

- q-position: [    0.0056497,    0.0056497,    0.0000000 ]
  distance:    0.0035077
  band:
  - # 1
    frequency:    0.1073666107
    eigenvector:
    - # atom 1
      - [ -0.02414459516780,  0.00000000000000 ]
      - [ -0.04181242202789,  0.00063548270462 ]
      - [  0.00720255809894,  0.63189641919672 ]
    - # atom 2
      - [ -0.02413832214575,  0.00055034416586 ]
      - [ -0.04181604375886,  0.00031774135262 ]
      - [  0.00720255809894,  0.63189641919672 ]
    - # atom 3
      - [ -0.01475157538500, -0.00017280304073 ]
      - [ -0.02554150437208,  0.00048797564977 ]
      - [  0.00355803818408,  0.31215459242897 ]
    - # atom 4
      - [ -0.01474380397650,  0.00050900082965 ]
      - [ -0.02554599119686,  0.00009433600213 ]
      - [  0.00355803818408,  0.31215459242897 ]
  - # 2
    frequency:    0.1401307628
    eigenvector:
    - # atom 1
      - [ -0.54889242523286,  0.00000000000000 ]
      - [  0.31689275777756, -0.00363634827443 ]
      - [ -0.00001713611862,  0.00000004911264 ]
    - # atom 2
      - [ -0.54888339126529,  0.00314916998515 ]
      - [  0.31690840506839,  0.00181817413657 ]
      - [  0.00001713611742, -0.00000004920446 ]
    - # atom 3
      - [ -0.27147414635629, -0.00160450406523 ]
      - [  0.15671988246566, -0.00457753661249 ]
      - [  0.00001711828367, -0.00000004913053 ]
    - # atom 4
      - [ -0.27146047273941,  0.00316201096398 ]
      - [  0.15674356586478,  0.00367830958561 ]
      - [ -0.00001711828427,  0.00000004908377 ]
  - # 3
    frequency:    0.2408922061
    eigenvector:
    - # atom 1
      - [  0.31601748489583,  0.00000000000000 ]
      - [  0.54730502409494, -0.00623761554545 ]
      - [  0.00041668960853,  0.04874979571009 ]
    - # atom 2
      - [  0.31597131179261, -0.00540193351802 ]
      - [  0.54733168214853, -0.00311880777176 ]
      - [  0.00041668960855,  0.04874979571009 ]
    - # atom 3
      - [  0.15602338381683,  0.00278859463555 ]
      - [  0.27015906314652, -0.00468914576648 ]
      - [  0.00024409047163,  0.02855689329704 ]
    - # atom 4
      - [  0.15595291971789, -0.00545521667064 ]
      - [  0.27019974561305,  0.00007042091470 ]
      - [  0.00024409047162,  0.02855689329704 ]
  - # 4
    frequency:    3.5144158226
    eigenvector:
    - # atom 1
      - [  0.56453178668183,  0.00000000000000 ]
      - [ -0.32592000874483,  0.00403805691037 ]
      - [  0.00007755010983, -0.00000024070288 ]
    - # atom 2
      - [ -0.56452095513982,  0.00349706054772 ]
      - [  0.32593876952223,  0.00201902845251 ]
      - [  0.00007755011304, -0.00000023966735 ]
    - # atom 3
      - [ -0.23724236638926, -0.00162948594782 ]
      - [  0.13695500599641, -0.00451929408001 ]
      - [  0.00006698489632, -0.00000020768678 ]
    - # atom 4
      - [  0.23722772049876, -0.00309908126609 ]
      - [ -0.13698037341796, -0.00367082299148 ]
      - [  0.00006698489767, -0.00000020725061 ]
  - # 5
    frequency:    3.5209008829
    eigenvector:
    - # atom 1
      - [  0.32596862073002,  0.00000000000000 ]
      - [  0.56452841787432, -0.00704328554323 ]
      - [ -0.00005791219394, -0.00618916262321 ]
    - # atom 2
      - [ -0.32591154607095,  0.00609966302768 ]
      - [ -0.56456136995044,  0.00352164277409 ]
      - [  0.00005791218096,  0.00618916262333 ]
    - # atom 3
      - [ -0.13690364459656, -0.00281878769477 ]
      - [ -0.23703552889480,  0.00458496955253 ]
      - [ -0.00002438003019, -0.00260552991426 ]
    - # atom 4
      - [  0.13682692757151, -0.00538009318640 ]
      - [  0.23707982149845,  0.00014865744821 ]
      - [  0.00002438001895,  0.00260552991436 ]
  - # 6
    frequency:    8.0424842346
    eigenvector:
    - # atom 1
      - [ -0.00284302158839,  0.00000000000000 ]
      - [ -0.00492411825580, -0.00003027279020 ]
      - [  0.00324156472235, -0.70302785709520 ]
    - # atom 2
      - [  0.00284290070497,  0.00002621700537 ]
      - [  0.00492418804788,  0.00001513639513 ]
      - [ -0.00324156472235,  0.70302785709520 ]
    - # atom 3
      - [  0.00153694170803,  0.00000130373077 ]
      - [  0.00266199955093,  0.00001561287019 ]
      - [  0.00034809488690, -0.07549452914325 ]
    - # atom 4
      - [ -0.00153688838178, -0.00001286927685 ]
      - [ -0.00266203033885, -0.00000893549911 ]
      - [ -0.00034809488690,  0.07549452914325 ]
  - # 7
    frequency:   11.5548162874
    eigenvector:
    - # atom 1
      - [  0.00118790224543,  0.00000000000000 ]
      - [  0.00205382275689, -0.00010046746180 ]
      - [  0.01148792560052,  0.31326552650822 ]
    - # atom 2
      - [  0.00118471155482, -0.00008700737399 ]
      - [  0.00205566490297, -0.00005023373099 ]
      - [  0.01148792560052,  0.31326552650822 ]
    - # atom 3
      - [  0.00211161212391,  0.00000568201720 ]
      - [  0.00365038972333, -0.00018185360448 ]
      - [ -0.02322699989706, -0.63337965486383 ]
    - # atom 4
      - [  0.00210552418083, -0.00016033085029 ]
      - [  0.00365390459890, -0.00008600603103 ]
      - [ -0.02322699989706, -0.63337965486383 ]
  - # 8
    frequency:   12.4821398959
    eigenvector:
    - # atom 1
      - [  0.27149695595452,  0.00000000000000 ]
      - [ -0.15674497130208,  0.00154852117738 ]
      - [  0.00007121169362, -0.00000017628285 ]
    - # atom 2
      - [  0.27149364350397, -0.00134105903067 ]
      - [ -0.15675070863327, -0.00077426060441 ]
      - [ -0.00007121169562,  0.00000017546967 ]
    - # atom 3
      - [ -0.54881539748839, -0.00454268043677 ]
      - [  0.31682498752770, -0.01099833301373 ]
      - [  0.00003705489059, -0.00000009209700 ]
    - # atom 4
      - [ -0.54878626427231,  0.00725349833055 ]
      - [  0.31687544772348,  0.00943324201667 ]
      - [ -0.00003705489347,  0.00000009093402 ]
  - # 9
    frequency:   12.4978653201
    eigenvector:
    - # atom 1
      - [ -0.15669700799087,  0.00000000000000 ]
      - [ -0.27139112456841,  0.00241601626121 ]
      - [  0.00002219511520,  0.00332428471820 ]
    - # atom 2
      - [ -0.15668303759943,  0.00209233084805 ]
      - [ -0.27139919038022,  0.00120800810145 ]
      - [  0.00002219509776,  0.00332428471832 ]
    - # atom 3
      - [  0.31692554251438,  0.00833478939019 ]
      - [  0.54877016417631, -0.00969771919883 ]
      - [  0.00003132245790,  0.00469133830210 ]
    - # atom 4
      - [  0.31678599705360, -0.01256586353147 ]
      - [  0.54885073080798,  0.00236928173836 ]
      - [  0.00003132244877,  0.00469133830216 ]
  - # 10
    frequency:   13.1885432922
    eigenvector:
    - # atom 1
      - [ -0.23727313965366,  0.00000000000000 ]
      - [  0.13698929697864, -0.00036088969754 ]
      - [  0.00004942187349, -0.00000003278811 ]
    - # atom 2
      - [  0.23727293411238, -0.00031254017393 ]
      - [ -0.13698965298594, -0.00018044477677 ]
      - [  0.00004942187379, -0.00000003231845 ]
    - # atom 3
      - [ -0.56444416524308, -0.00564965488156 ]
      - [  0.32587241081396, -0.01064398465425 ]
      - [ -0.00001456116960,  0.00000000846419 ]
    - # atom 4
      - [  0.56443623314207, -0.00639314530759 ]
      - [ -0.32588614959861, -0.01021473081082 ]
      - [ -0.00001456116812,  0.00000001071094 ]
  - # 11
    frequency:   13.1921918878
    eigenvector:
    - # atom 1
      - [  0.13690349179841,  0.00000000000000 ]
      - [  0.23712165734438, -0.00088066565229 ]
      - [  0.00000116821210,  0.00041938359952 ]
    - # atom 2
      - [ -0.13690136788197,  0.00076267791307 ]
      - [ -0.23712288358923,  0.00044033294937 ]
      - [ -0.00000116815689, -0.00041938359967 ]
    - # atom 3
      - [  0.32594366719907,  0.00928722252510 ]
      - [  0.56448613680663, -0.00745853472751 ]
      - [  0.00000560357679,  0.00201171263355 ]
    - # atom 4
      - [ -0.32588686994376,  0.01110288332068 ]
      - [ -0.56451892876061, -0.00431371392092 ]
      - [ -0.00000560359301, -0.00201171263351 ]
  - # 12
    frequency:   16.4872260283
    eigenvector:
    - # atom 1
      - [ -0.00051113052881,  0.00000000000000 ]
      - [ -0.00088478912916,  0.00002464841089 ]
      - [  0.00157724025301,  0.07550063829478 ]
    - # atom 2
      - [  0.00051068459900, -0.00002134615001 ]
      - [  0.00088504658685, -0.00001232420544 ]
      - [ -0.00157724025301, -0.07550063829478 ]
    - # atom 3
      - [  0.00127509216252, -0.00001718295111 ]
      - [  0.00220806849560, -0.00005158590580 ]
      - [ -0.01468396120168, -0.70290397503291 ]
    - # atom 4
      - [ -0.00127469732720,  0.00003608322930 ]
      - [ -0.00220829645388,  0.00004067382508 ]
      - [  0.01468396120168,  0.70290397503291 ]

- q-position: [    0.0112993,    0.0112993,    0.0000000 ]
  distance:    0.0070153
  band:
  - # 1
    frequency:    0.2173105029
    eigenvector:
    - # atom 1
      - [ -0.00916379735893,  0.00000000000000 ]
      - [ -0.01582774657369,  0.00096850243861 ]
      - [  0.02902573984525,  0.63291439129821 ]
    - # atom 2
      - [ -0.00912533196427,  0.00083874771724 ]
      - [ -0.01584995457963,  0.00048425121860 ]
      - [  0.02902573984525,  0.63291439129821 ]
    - # atom 3
      - [ -0.01011632845089,  0.00011730162744 ]
      - [ -0.01748535945184,  0.00100201788069 ]
      - [  0.01432924661897,  0.31245323805136 ]
    - # atom 4
      - [ -0.01008460127183,  0.00080912212722 ]
      - [ -0.01750367714719,  0.00060259512934 ]
      - [  0.01432924661897,  0.31245323805136 ]
  - # 2
    frequency:    0.2801378356
    eigenvector:
    - # atom 1
      - [ -0.54891644398928,  0.00000000000000 ]
      - [  0.31687438860435, -0.00735438391124 ]
      - [ -0.00006921229375,  0.00000040152911 ]
    - # atom 2
      - [ -0.54887949247678,  0.00636908330154 ]
      - [  0.31693839050134,  0.00367719195453 ]
      - [  0.00006921229401, -0.00000040157076 ]
    - # atom 3
      - [ -0.27132171580219, -0.00316655932965 ]
      - [  0.15658414984317, -0.00911956453856 ]
      - [  0.00006788297691, -0.00000039384888 ]
    - # atom 4
      - [ -0.27126670956503,  0.00631449490405 ]
      - [  0.15667942344060,  0.00730210308825 ]
      - [ -0.00006788297680,  0.00000039382548 ]
  - # 3
    frequency:    0.4803504480
    eigenvector:
    - # atom 1
      - [  0.31692434595024,  0.00000000000000 ]
      - [  0.54871635350094, -0.01247569008963 ]
      - [  0.00032737948898,  0.01920063527608 ]
    - # atom 2
      - [  0.31674012838184, -0.01080426454058 ]
      - [  0.54882271156375, -0.00623784504279 ]
      - [  0.00032737948904,  0.01920063527608 ]
    - # atom 3
      - [  0.15625513228341,  0.00560536626664 ]
      - [  0.27031629688212, -0.00938346261091 ]
      - [  0.00031382706289,  0.01840579297804 ]
    - # atom 4
      - [  0.15597321389279, -0.01092900012393 ]
      - [  0.27047906254098,  0.00016265828437 ]
      - [  0.00031382706283,  0.01840579297804 ]
  - # 4
    frequency:    3.5147559700
    eigenvector:
    - # atom 1
      - [  0.56455461905828,  0.00000000000000 ]
      - [ -0.32589660515500,  0.00800411400919 ]
      - [  0.00029612811333, -0.00000181827530 ]
    - # atom 2
      - [ -0.56451206237113,  0.00693176641420 ]
      - [  0.32597031549562,  0.00400205699926 ]
      - [  0.00029612811653, -0.00000181775345 ]
    - # atom 3
      - [ -0.23706433614081, -0.00323442149856 ]
      - [  0.13680266023026, -0.00896293935680 ]
      - [  0.00026120736810, -0.00000160374767 ]
    - # atom 4
      - [  0.23700675289779, -0.00614492280917 ]
      - [ -0.13690239732791, -0.00728256072338 ]
      - [  0.00026120736945, -0.00000160352827 ]
  - # 5
    frequency:    3.5404719553
    eigenvector:
    - # atom 1
      - [  0.32608898470248,  0.00000000000000 ]
      - [  0.56453293812471, -0.01425095146976 ]
      - [ -0.00023539002425, -0.01243437858178 ]
    - # atom 2
      - [ -0.32585534949698,  0.01234168540189 ]
      - [ -0.56466782747995,  0.00712547573975 ]
      - [  0.00023539001182,  0.01243437858201 ]
    - # atom 3
      - [ -0.13659864742970, -0.00557430077241 ]
      - [ -0.23623918734313,  0.00918343484062 ]
      - [ -0.00009875680064, -0.00521678611525 ]
    - # atom 4
      - [  0.13628980388564, -0.01074023786294 ]
      - [  0.23641749825516,  0.00023576889343 ]
      - [  0.00009875678958,  0.00521678611546 ]
  - # 6
    frequency:    8.0382955502
    eigenvector:
    - # atom 1
      - [ -0.00572446753258,  0.00000000000000 ]
      - [ -0.00991404987838, -0.00011604636877 ]
      - [  0.00617074896628, -0.70292229078868 ]
    - # atom 2
      - [  0.00572358527956,  0.00010049910341 ]
      - [  0.00991455924740,  0.00005802318451 ]
      - [ -0.00617074896628,  0.70292229078868 ]
    - # atom 3
      - [  0.00306223070729,  0.00000449377589 ]
      - [  0.00530348530950,  0.00005948383802 ]
      - [  0.00066237990169, -0.07545301233429 ]
    - # atom 4
      - [ -0.00306183765260, -0.00004926762702 ]
      - [ -0.00530371223973, -0.00003363364331 ]
      - [ -0.00066237990168,  0.07545301233429 ]
  - # 7
    frequency:   11.5573020234
    eigenvector:
    - # atom 1
      - [  0.00244590940741,  0.00000000000000 ]
      - [  0.00420682507020, -0.00040792397600 ]
      - [  0.02268584858893,  0.31248748486269 ]
    - # atom 2
      - [  0.00242026266725, -0.00035327252535 ]
      - [  0.00422163222254, -0.00020396198835 ]
      - [  0.02268584858894,  0.31248748486269 ]
    - # atom 3
      - [  0.00410284703719,  0.00003024830459 ]
      - [  0.00705161876121, -0.00070136241172 ]
      - [ -0.04589408808471, -0.63217067236604 ]
    - # atom 4
      - [  0.00405545748275, -0.00062252181975 ]
      - [  0.00707897913315, -0.00032448540577 ]
      - [ -0.04589408808471, -0.63217067236604 ]
  - # 8
    frequency:   12.4853640809
    eigenvector:
    - # atom 1
      - [ -0.27141113052755,  0.00000000000000 ]
      - [  0.15668182732164, -0.00330719587558 ]
      - [ -0.00028217237400,  0.00000148908401 ]
    - # atom 2
      - [ -0.27139601770232,  0.00286411579422 ]
      - [  0.15670800350157,  0.00165359796860 ]
      - [  0.00028217237616, -0.00000148867527 ]
    - # atom 3
      - [  0.54862308092929,  0.00869980640184 ]
      - [ -0.31660637901187,  0.02175302191213 ]
      - [ -0.00014591505092,  0.00000077020810 ]
    - # atom 4
      - [  0.54850072724938, -0.01448876784532 ]
      - [ -0.31681830178541, -0.01841076370284 ]
      - [  0.00014591505400, -0.00000076962475 ]
  - # 9
    frequency:   12.5478402570
    eigenvector:
    - # atom 1
      - [ -0.15648869902874,  0.00000000000000 ]
      - [ -0.27101204109484,  0.00352343107535 ]
      - [  0.00006533198587,  0.00670040590656 ]
    - # atom 2
      - [ -0.15645894603956,  0.00305138056447 ]
      - [ -0.27102921899322,  0.00176171547308 ]
      - [  0.00006533196864,  0.00670040590672 ]
    - # atom 3
      - [  0.31693155323446,  0.01895420933368 ]
      - [  0.54844525031374, -0.01807494956172 ]
      - [  0.00008865441535,  0.00909233983849 ]
    - # atom 4
      - [  0.31650170885710, -0.02513046911539 ]
      - [  0.54869342109679,  0.00737735305593 ]
      - [  0.00008865440627,  0.00909233983858 ]
  - # 10
    frequency:   13.1925450320
    eigenvector:
    - # atom 1
      - [ -0.23718850028607,  0.00000000000000 ]
      - [  0.13694079998867,  0.00001542892314 ]
      - [  0.00021170015987,  0.00000000584228 ]
    - # atom 2
      - [  0.23718850023364,  0.00001336157764 ]
      - [ -0.13694080007949,  0.00000771461519 ]
      - [  0.00021170015986,  0.00000000606798 ]
    - # atom 3
      - [ -0.56414287053311, -0.01271837382052 ]
      - [  0.32570875764852, -0.02199216671181 ]
      - [ -0.00004431600770, -0.00000000181964 ]
    - # atom 4
      - [  0.56414358544625, -0.01268659378865 ]
      - [ -0.32570751938299, -0.02201051491579 ]
      - [ -0.00004431600774, -0.00000000068801 ]
  - # 11
    frequency:   13.2070256865
    eigenvector:
    - # atom 1
      - [ -0.13659751215379,  0.00000000000000 ]
      - [ -0.23657981319969,  0.00210865809996 ]
      - [ -0.00000531791763, -0.00079552876863 ]
    - # atom 2
      - [  0.13658530534940, -0.00182615103418 ]
      - [  0.23658686080152, -0.00105432930519 ]
      - [  0.00000531785829,  0.00079552876903 ]
    - # atom 3
      - [ -0.32601540336091, -0.01786797105609 ]
      - [ -0.56436595466592,  0.01534694341471 ]
      - [ -0.00002695900630, -0.00403292987022 ]
    - # atom 4
      - [  0.32574739316854, -0.02222482375670 ]
      - [  0.56452069047784,  0.00780065072238 ]
      - [  0.00002695901869,  0.00403292987014 ]
  - # 12
    frequency:   16.4841694403
    eigenvector:
    - # atom 1
      - [ -0.00102261524535,  0.00000000000000 ]
      - [ -0.00176711709785,  0.00009836854849 ]
      - [  0.00314933057955,  0.07547761389339 ]
    - # atom 2
      - [  0.00101906067665, -0.00008518966198 ]
      - [  0.00176916932904, -0.00004918427424 ]
      - [ -0.00314933057955, -0.07547761389339 ]
    - # atom 3
      - [  0.00255587171044, -0.00006871039493 ]
      - [  0.00442325064778, -0.00020646308553 ]
      - [ -0.02930902447174, -0.70242712754179 ]
    - # atom 4
      - [ -0.00255271156899,  0.00014444707934 ]
      - [ -0.00442507515630,  0.00016273649030 ]
      - [  0.02930902447173,  0.70242712754179 ]

- q-position: [    0.0169490,    0.0169490,    0.0000000 ]
  distance:    0.0105230
  band:
  - # 1
    frequency:    0.3274693512
    eigenvector:
    - # atom 1
      - [ -0.00292238821734,  0.00000000000000 ]
      - [ -0.00475197698444,  0.00141227961893 ]
      - [  0.13580801801769,  0.61920988892919 ]
    - # atom 2
      - [ -0.00265413869032,  0.00122307002985 ]
      - [ -0.00490685092101,  0.00070613980828 ]
      - [  0.13580801801770,  0.61920988892919 ]
    - # atom 3
      - [ -0.00953980946475,  0.00171683320092 ]
      - [ -0.01634197819126,  0.00380098428452 ]
      - [  0.06697182479846,  0.30535469701987 ]
    - # atom 4
      - [ -0.00938266354221,  0.00243333235220 ]
      - [ -0.01643270643186,  0.00338731330702 ]
      - [  0.06697182479846,  0.30535469701987 ]
  - # 2
    frequency:    0.4198936278
    eigenvector:
    - # atom 1
      - [ -0.54895582169981,  0.00000000000000 ]
      - [  0.31684032004309, -0.01122923265759 ]
      - [ -0.00015813198583,  0.00000140076152 ]
    - # atom 2
      - [ -0.54886967709335,  0.00972480075441 ]
      - [  0.31698952687815,  0.00561461632713 ]
      - [  0.00015813198538, -0.00000140078306 ]
    - # atom 3
      - [ -0.27107054612786, -0.00464695495690 ]
      - [  0.15635847814692, -0.01359283661452 ]
      - [  0.00015058968179, -0.00000133396758 ]
    - # atom 4
      - [ -0.27094568730625,  0.00944826434974 ]
      - [  0.15657473996952,  0.01082079934553 ]
      - [ -0.00015058968204,  0.00000133395269 ]
  - # 3
    frequency:    0.7191419681
    eigenvector:
    - # atom 1
      - [  0.31723531064152,  0.00000000000000 ]
      - [  0.54899263382363, -0.01864944066656 ]
      - [  0.00017720287218,  0.00695671327254 ]
    - # atom 2
      - [  0.31682391181378, -0.01615088937335 ]
      - [  0.54923015504780, -0.00932472033007 ]
      - [  0.00017720287233,  0.00695671327253 ]
    - # atom 3
      - [  0.15605727388551,  0.00844426970282 ]
      - [  0.26956902350041, -0.01403685871449 ]
      - [  0.00042832948295,  0.01681556032103 ]
    - # atom 4
      - [  0.15542498535932, -0.01637841107870 ]
      - [  0.26993407545155,  0.00029452272980 ]
      - [  0.00042832948281,  0.01681556032104 ]
  - # 4
    frequency:    3.5155604897
    eigenvector:
    - # atom 1
      - [  0.56459645784063,  0.00000000000000 ]
      - [ -0.32586247529205,  0.01183512222058 ]
      - [  0.00061496803298, -0.00000558256827 ]
    - # atom 2
      - [ -0.56450341686936,  0.01024951673909 ]
      - [  0.32602362697762,  0.00591756110233 ]
      - [  0.00061496803618, -0.00000558221577 ]
    - # atom 3
      - [ -0.23676674973831, -0.00479146593217 ]
      - [  0.13655185139914, -0.01326127662267 ]
      - [  0.00056313745161, -0.00000511199137 ]
    - # atom 4
      - [  0.23664074969744, -0.00908886973441 ]
      - [ -0.13677008986676, -0.01078016943482 ]
      - [  0.00056313745295, -0.00000511184360 ]
  - # 5
    frequency:    3.5725971427
    eigenvector:
    - # atom 1
      - [  0.32628783849245,  0.00000000000000 ]
      - [  0.56451740794166, -0.02177418395768 ]
      - [ -0.00054345599316, -0.01879142272493 ]
    - # atom 2
      - [ -0.32574248617139,  0.01885699604396 ]
      - [ -0.56483226725766,  0.01088709198599 ]
      - [  0.00054345598161,  0.01879142272526 ]
    - # atom 3