  191  191   30    2
  0.1195271E+02  0.1299435E-08  0.1299435E-08  0.1561204E-08  0.2000000E-15
  1.000000000000000E-004
  CAR 
 zno                                     
   1722      1   1056
 
  0.0000000E+00  0.0000000E+00  0.0000000E+00  0.1000000E+01
      1        -67.259374      -65.346876   1.000000   1.000000
      2        -39.627200      -37.748297   1.000000   1.000000
      3        -39.627190      -37.748282   1.000000   1.000000
      4        -39.518600      -36.337426   1.000000   1.000000
      5        -21.655506      -21.544237   1.000000   1.000000
      6        -21.269781      -21.131328   1.000000   1.000000
      7        -21.269775      -21.131325   1.000000   1.000000
      8        -20.937181      -20.926400   1.000000   1.000000
      9        -20.779804      -20.759509   1.000000   1.000000
     10        -20.779780      -20.759504   1.000000   1.000000
     11        -20.727343      -20.723322   1.000000   1.000000
     12        -20.684830      -20.674356   1.000000   1.000000
     13        -20.684804      -20.674346   1.000000   1.000000
     14        -20.669494      -20.668000   1.000000   1.000000
     15        -20.564210      -20.547420   1.000000   1.000000
     16        -20.530137      -20.510826   1.000000   1.000000
     17        -20.505126      -20.507877   1.000000   1.000000
     18        -20.489971      -20.491414   1.000000   1.000000
     19        -20.487088      -20.488461   1.000000   1.000000
     20        -20.487074      -20.488446   1.000000   1.000000
     21        -20.460042      -20.461300   1.000000   1.000000
     22        -20.460014      -20.461274   1.000000   1.000000
     23        -20.453093      -20.444090   1.000000   1.000000
     24        -20.426282      -20.425968   1.000000   1.000000
     25        -20.426271      -20.425959   1.000000   1.000000
     26        -20.336639      -20.339192   1.000000   1.000000
     27        -20.336636      -20.339191   1.000000   1.000000
     28        -20.326790      -20.332368   1.000000   1.000000
     29        -20.295390      -20.300013   1.000000   1.000000
     30        -20.295376      -20.299949   1.000000   1.000000
     31        -20.295306      -20.299938   1.000000   1.000000
     32        -20.288857      -20.291869   1.000000   1.000000
     33        -20.288854      -20.291865   1.000000   1.000000
     34        -20.276980      -20.282448   1.000000   1.000000
     35        -20.256157      -20.261968   1.000000   1.000000
     36        -20.240226      -20.242315   1.000000   1.000000
     37        -20.235927      -20.242292   1.000000   1.000000
     38        -20.235907      -20.235798   1.000000   1.000000
     39        -20.217879      -20.222204   1.000000   1.000000
     40        -20.217874      -20.222201   1.000000   1.000000
     41        -20.205577      -20.212380   1.000000   1.000000
     42        -20.163208      -20.169166   1.000000   1.000000
     43        -20.142119      -20.148236   1.000000   1.000000
     44        -20.142098      -20.148216   1.000000   1.000000
     45        -20.140912      -20.145604   1.000000   1.000000
     46        -20.124364      -20.129718   1.000000   1.000000
     47        -20.124361      -20.129715   1.000000   1.000000
     48        -20.101642      -20.107344   1.000000   1.000000
     49        -20.101626      -20.107328   1.000000   1.000000
     50        -20.078891      -20.084183   1.000000   1.000000
     51        -20.077610      -20.084055   1.000000   1.000000
     52        -20.077136      -20.082530   1.000000   1.000000
     53        -20.077132      -20.082524   1.000000   1.000000
     54        -20.053040      -20.057981   1.000000   1.000000
     55        -20.040666      -20.046738   1.000000   1.000000
     56        -20.033998      -20.039289   1.000000   1.000000
     57        -20.033994      -20.039284   1.000000   1.000000
     58        -20.025980      -20.031901   1.000000   1.000000
     59        -20.025968      -20.031888   1.000000   1.000000
     60        -20.025781      -20.031523   1.000000   1.000000
     61        -20.015982      -20.022686   1.000000   1.000000
     62        -20.001924      -20.008027   1.000000   1.000000
     63        -20.001915      -20.008017   1.000000   1.000000
     64        -19.997278      -20.002189   1.000000   1.000000
     65        -19.981345      -19.987883   1.000000   1.000000
     66        -19.967842      -19.973534   1.000000   1.000000
     67        -19.967838      -19.973530   1.000000   1.000000
     68        -19.955493      -19.961960   1.000000   1.000000
     69        -19.955480      -19.961947   1.000000   1.000000
     70        -19.942338      -19.948677   1.000000   1.000000
     71        -19.926083      -19.932629   1.000000   1.000000
     72        -19.926081      -19.932627   1.000000   1.000000
     73        -19.922125      -19.927972   1.000000   1.000000
     74        -19.922114      -19.927959   1.000000   1.000000
     75        -19.918531      -19.923701   1.000000   1.000000
     76        -19.918524      -19.923695   1.000000   1.000000
     77        -19.915402      -19.921717   1.000000   1.000000
     78        -19.907999      -19.914338   1.000000   1.000000
     79        -19.886023      -19.891581   1.000000   1.000000
     80        -19.883505      -19.889677   1.000000   1.000000
     81        -19.878465      -19.884881   1.000000   1.000000
     82        -19.878460      -19.884877   1.000000   1.000000
     83        -19.859095      -19.865225   1.000000   1.000000
     84        -19.859083      -19.865212   1.000000   1.000000
     85        -19.829693      -19.836488   1.000000   1.000000
     86        -19.829692      -19.836486   1.000000   1.000000
     87        -19.824808      -19.831304   1.000000   1.000000
     88        -19.824795      -19.831290   1.000000   1.000000
     89        -19.821938      -19.828564   1.000000   1.000000
     90        -19.812478      -19.819164   1.000000   1.000000
     91        -19.789931      -19.796378   1.000000   1.000000
     92        -19.782268      -19.788496   1.000000   1.000000
     93        -19.782261      -19.788490   1.000000   1.000000
     94        -19.779640      -19.785923   1.000000   1.000000
     95        -19.738804      -19.745361   1.000000   1.000000
     96        -19.738802      -19.745358   1.000000   1.000000
     97        -19.732650      -19.739312   1.000000   1.000000
     98        -19.732643      -19.739306   1.000000   1.000000
     99        -19.725212      -19.731909   1.000000   1.000000
    100         -8.453932       -8.445762   1.000000   1.000000
    101         -8.436823       -8.430433   1.000000   1.000000
    102         -8.436776       -8.430382   1.000000   1.000000
    103         -8.418269       -8.410259   1.000000   1.000000
    104         -8.418253       -8.410244   1.000000   1.000000
    105         -8.364584       -8.359613   1.000000   1.000000
    106         -8.341591       -8.314170   1.000000   1.000000
    107         -8.310289       -8.297439   1.000000   1.000000
    108         -8.310248       -8.297390   1.000000   1.000000
    109         -8.291046       -8.261314   1.000000   1.000000
    110         -8.291002       -8.261295   1.000000   1.000000
    111         -8.268621       -8.257661   1.000000   1.000000
    112         -8.231492       -8.222086   1.000000   1.000000
    113         -8.231472       -8.222055   1.000000   1.000000
    114         -8.199048       -8.195013   1.000000   1.000000
    115         -8.155701       -8.128482   1.000000   1.000000
    116         -8.155574       -8.128362   1.000000   1.000000
    117         -8.117124       -8.103358   1.000000   1.000000
    118         -8.081511       -8.055863   1.000000   1.000000
    119         -8.081482       -8.055787   1.000000   1.000000
    120         -8.052885       -8.042859   1.000000   1.000000
    121         -8.052804       -8.042827   1.000000   1.000000
    122         -8.011888       -8.004383   1.000000   1.000000
    123         -8.004408       -7.990962   1.000000   1.000000
    124         -8.004391       -7.990926   1.000000   1.000000
    125         -7.990155       -7.987584   1.000000   1.000000
    126         -7.984449       -7.981962   1.000000   1.000000
    127         -7.968720       -7.945794   1.000000   1.000000
    128         -7.935840       -7.926288   1.000000   1.000000
    129         -7.935820       -7.926278   1.000000   1.000000
    130         -7.924011       -7.916568   1.000000   1.000000
    131         -7.923993       -7.916535   1.000000   1.000000
    132         -7.897801       -7.887936   1.000000   1.000000
    133         -7.889876       -7.886967   1.000000   1.000000
    134         -7.876710       -7.874262   1.000000   1.000000
    135         -7.876685       -7.874239   1.000000   1.000000
    136         -7.852238       -7.850470   1.000000   1.000000
    137         -7.852217       -7.850451   1.000000   1.000000
    138         -7.842388       -7.843853   1.000000   1.000000
    139         -7.835937       -7.834609   1.000000   1.000000
    140         -7.832996       -7.822006   1.000000   1.000000
    141         -7.832966       -7.821979   1.000000   1.000000
    142         -7.831464       -7.816438   1.000000   1.000000
    143         -7.818387       -7.806181   1.000000   1.000000
    144         -7.818360       -7.806146   1.000000   1.000000
    145         -7.806995       -7.795884   1.000000   1.000000
    146         -7.806964       -7.795858   1.000000   1.000000
    147         -7.793662       -7.788799   1.000000   1.000000
    148         -7.793623       -7.788770   1.000000   1.000000
    149         -7.784945       -7.784807   1.000000   1.000000
    150         -7.773681       -7.774233   1.000000   1.000000
    151         -7.761010       -7.759142   1.000000   1.000000
    152         -7.754122       -7.753139   1.000000   1.000000
    153         -7.754071       -7.753092   1.000000   1.000000
    154         -7.750547       -7.751349   1.000000   1.000000
    155         -7.750506       -7.751305   1.000000   1.000000
    156         -7.746421       -7.743652   1.000000   1.000000
    157         -7.745181       -7.743622   1.000000   1.000000
    158         -7.745155       -7.743421   1.000000   1.000000
    159         -7.744116       -7.743147   1.000000   1.000000
    160         -7.740748       -7.739165   1.000000   1.000000
    161         -7.740722       -7.739136   1.000000   1.000000
    162         -7.730332       -7.729747   1.000000   1.000000
    163         -7.725931       -7.725335   1.000000   1.000000
    164         -7.717479       -7.717403   1.000000   1.000000
    165         -7.712810       -7.713779   1.000000   1.000000
    166         -7.712764       -7.713732   1.000000   1.000000
    167         -7.709881       -7.709710   1.000000   1.000000
    168         -7.702535       -7.703312   1.000000   1.000000
    169         -7.702483       -7.703259   1.000000   1.000000
    170         -7.695862       -7.696463   1.000000   1.000000
    171         -7.695835       -7.696439   1.000000   1.000000
    172         -7.680142       -7.679718   1.000000   1.000000
    173         -7.680105       -7.679680   1.000000   1.000000
    174         -7.678207       -7.679607   1.000000   1.000000
    175         -7.678149       -7.677689   1.000000   1.000000
    176         -7.678147       -7.677631   1.000000   1.000000
    177         -7.665771       -7.665404   1.000000   1.000000
    178         -7.660426       -7.660688   1.000000   1.000000
    179         -7.660265       -7.660643   1.000000   1.000000
    180         -7.660225       -7.660634   1.000000   1.000000
    181         -7.658627       -7.656851   1.000000   1.000000
    182         -7.653588       -7.653983   1.000000   1.000000
    183         -7.653549       -7.653945   1.000000   1.000000
    184         -7.644423       -7.644649   1.000000   1.000000
    185         -7.644392       -7.644617   1.000000   1.000000
    186         -7.638621       -7.639952   1.000000   1.000000
    187         -7.634317       -7.635912   1.000000   1.000000
    188         -7.634285       -7.635882   1.000000   1.000000
    189         -7.625528       -7.625007   1.000000   1.000000
    190         -7.625493       -7.624971   1.000000   1.000000
    191         -7.623986       -7.624665   1.000000   1.000000
    192         -7.613739       -7.611808   1.000000   1.000000
    193         -7.613702       -7.611770   1.000000   1.000000
    194         -7.607954       -7.608849   1.000000   1.000000
    195         -7.600838       -7.602492   1.000000   1.000000
    196         -7.597662       -7.597322   1.000000   1.000000
    197         -7.597636       -7.597294   1.000000   1.000000
    198         -7.581605       -7.582171   1.000000   1.000000
    199         -7.581363       -7.581909   1.000000   1.000000
    200         -7.581311       -7.581855   1.000000   1.000000
    201         -7.580427       -7.581619   1.000000   1.000000
    202         -7.577899       -7.575762   1.000000   1.000000
    203         -7.573627       -7.574440   1.000000   1.000000
    204         -7.573605       -7.574423   1.000000   1.000000
    205         -7.567402       -7.566591   1.000000   1.000000
    206         -7.567391       -7.566576   1.000000   1.000000
    207         -7.560044       -7.558004   1.000000   1.000000
    208         -7.560005       -7.557955   1.000000   1.000000
    209         -7.555229       -7.552798   1.000000   1.000000
    210         -7.555194       -7.552771   1.000000   1.000000
    211         -7.550077       -7.550265   1.000000   1.000000
    212         -7.540034       -7.540666   1.000000   1.000000
    213         -7.540001       -7.540633   1.000000   1.000000
    214         -7.532439       -7.533653   1.000000   1.000000
    215         -7.530398       -7.529732   1.000000   1.000000
    216         -7.530348       -7.529684   1.000000   1.000000
    217         -7.528048       -7.526890   1.000000   1.000000
    218         -7.528029       -7.526870   1.000000   1.000000
    219         -7.527045       -7.525703   1.000000   1.000000
    220         -7.525390       -7.522709   1.000000   1.000000
    221         -7.521399       -7.521554   1.000000   1.000000
    222         -7.520353       -7.521058   1.000000   1.000000
    223         -7.520318       -7.521023   1.000000   1.000000
    224         -7.513442       -7.514437   1.000000   1.000000
    225         -7.512660       -7.510513   1.000000   1.000000
    226         -7.504213       -7.503195   1.000000   1.000000
    227         -7.504190       -7.503175   1.000000   1.000000
    228         -7.497962       -7.498023   1.000000   1.000000
    229         -7.497930       -7.497989   1.000000   1.000000
    230         -7.491554       -7.491693   1.000000   1.000000
    231         -7.490551       -7.489691   1.000000   1.000000
    232         -7.490504       -7.489644   1.000000   1.000000
    233         -7.488928       -7.487323   1.000000   1.000000
    234         -7.476521       -7.478167   1.000000   1.000000
    235         -7.476479       -7.476622   1.000000   1.000000
    236         -7.475904       -7.476580   1.000000   1.000000
    237         -7.464086       -7.464910   1.000000   1.000000
    238         -7.461396       -7.461907   1.000000   1.000000
    239         -7.461354       -7.461270   1.000000   1.000000
    240         -7.461310       -7.461226   1.000000   1.000000
    241         -7.460095       -7.460488   1.000000   1.000000
    242         -7.456080       -7.456346   1.000000   1.000000
    243         -7.456038       -7.456307   1.000000   1.000000
    244         -7.450177       -7.450230   1.000000   1.000000
    245         -7.447513       -7.446772   1.000000   1.000000
    246         -7.447474       -7.446728   1.000000   1.000000
    247         -7.437412       -7.437954   1.000000   1.000000
    248         -7.426248       -7.425625   1.000000   1.000000
    249         -7.426205       -7.425583   1.000000   1.000000
    250         -7.415992       -7.415926   1.000000   1.000000
    251         -7.415951       -7.414627   1.000000   1.000000
    252         -7.415849       -7.414581   1.000000   1.000000
    253         -7.411818       -7.412063   1.000000   1.000000
    254         -7.411800       -7.410549   1.000000   1.000000
    255         -7.411655       -7.410536   1.000000   1.000000
    256         -7.405510       -7.405444   1.000000   1.000000
    257         -7.405494       -7.405425   1.000000   1.000000
    258         -7.400123       -7.396168   1.000000   1.000000
    259         -7.400107       -7.396150   1.000000   1.000000
    260         -7.391807       -7.391723   1.000000   1.000000
    261         -7.391214       -7.390945   1.000000   1.000000
    262         -7.385499       -7.384697   1.000000   1.000000
    263         -7.385463       -7.384666   1.000000   1.000000
    264         -7.377426       -7.376986   1.000000   1.000000
    265         -7.377401       -7.376960   1.000000   1.000000
    266         -7.368357       -7.368803   1.000000   1.000000
    267         -7.368318       -7.368765   1.000000   1.000000
    268         -7.365843       -7.366052   1.000000   1.000000
    269         -7.365810       -7.366018   1.000000   1.000000
    270         -7.355140       -7.355331   1.000000   1.000000
    271         -7.354835       -7.354299   1.000000   1.000000
    272         -7.346443       -7.346516   1.000000   1.000000
    273         -7.340234       -7.340107   1.000000   1.000000
    274         -7.340223       -7.340093   1.000000   1.000000
    275         -7.335456       -7.334218   1.000000   1.000000
    276         -7.335411       -7.334179   1.000000   1.000000
    277         -7.330969       -7.328965   1.000000   1.000000
    278         -7.329578       -7.328939   1.000000   1.000000
    279         -7.329538       -7.328898   1.000000   1.000000
    280         -7.322922       -7.322923   1.000000   1.000000
    281         -7.314673       -7.314916   1.000000   1.000000
    282         -7.313007       -7.313524   1.000000   1.000000
    283         -7.312989       -7.313506   1.000000   1.000000
    284         -7.308882       -7.308909   1.000000   1.000000
    285         -7.304346       -7.304385   1.000000   1.000000
    286         -7.304328       -7.304367   1.000000   1.000000
    287         -7.303276       -7.304198   1.000000   1.000000
    288         -7.297293       -7.297133   1.000000   1.000000
    289         -7.292886       -7.293119   1.000000   1.000000
    290         -7.292856       -7.293088   1.000000   1.000000
    291         -7.287322       -7.287238   1.000000   1.000000
    292         -7.287296       -7.287211   1.000000   1.000000
    293         -7.284757       -7.285197   1.000000   1.000000
    294         -7.284732       -7.285172   1.000000   1.000000
    295         -7.282376       -7.282014   1.000000   1.000000
    296         -7.275679       -7.275898   1.000000   1.000000
    297         -7.275663       -7.275882   1.000000   1.000000
    298         -7.275039       -7.275317   1.000000   1.000000
    299         -7.272274       -7.272640   1.000000   1.000000
    300         -7.272243       -7.272610   1.000000   1.000000
    301         -7.270138       -7.270846   1.000000   1.000000
    302         -7.259747       -7.259943   1.000000   1.000000
    303         -7.259736       -7.259931   1.000000   1.000000
    304         -7.247867       -7.248363   1.000000   1.000000
    305         -7.244583       -7.244126   1.000000   1.000000
    306         -7.243233       -7.243604   1.000000   1.000000
    307         -7.243216       -7.243587   1.000000   1.000000
    308         -7.233763       -7.233574   1.000000   1.000000
    309         -7.233753       -7.233565   1.000000   1.000000
    310         -7.229238       -7.229765   1.000000   1.000000
    311         -7.229125       -7.229025   1.000000   1.000000
    312         -7.229112       -7.229012   1.000000   1.000000
    313         -7.226013       -7.226970   1.000000   1.000000
    314         -7.215820       -7.216086   1.000000   1.000000
    315         -7.215343       -7.215348   1.000000   1.000000
    316         -7.215301       -7.215305   1.000000   1.000000
    317         -7.207395       -7.206403   1.000000   1.000000
    318         -7.207386       -7.206396   1.000000   1.000000
    319         -7.201271       -7.201190   1.000000   1.000000
    320         -7.188514       -7.189074   1.000000   1.000000
    321         -7.188492       -7.189054   1.000000   1.000000
    322         -7.180908       -7.179805   1.000000   1.000000
    323         -7.180890       -7.179755   1.000000   1.000000
    324         -7.179323       -7.179738   1.000000   1.000000
    325         -7.178321       -7.179278   1.000000   1.000000
    326         -7.178293       -7.177741   1.000000   1.000000
    327         -7.177829       -7.177709   1.000000   1.000000
    328         -7.173113       -7.172674   1.000000   1.000000
    329         -7.163161       -7.161626   1.000000   1.000000
    330         -7.157129       -7.156787   1.000000   1.000000
    331         -7.157118       -7.156776   1.000000   1.000000
    332         -7.147751       -7.148102   1.000000   1.000000
    333         -7.147738       -7.148089   1.000000   1.000000
    334         -7.141089       -7.141933   1.000000   1.000000
    335         -7.126600       -7.127006   1.000000   1.000000
    336         -7.124819       -7.124046   1.000000   1.000000
    337         -7.124809       -7.124036   1.000000   1.000000
    338         -7.124033       -7.121880   1.000000   1.000000
    339         -7.115620       -7.115749   1.000000   1.000000
    340         -7.115596       -7.115725   1.000000   1.000000
    341         -7.110366       -7.110725   1.000000   1.000000
    342         -7.106184       -7.104864   1.000000   1.000000
    343         -7.106163       -7.104843   1.000000   1.000000
    344         -7.094915       -7.095474   1.000000   1.000000
    345         -7.082638       -7.083024   1.000000   1.000000
    346         -7.082615       -7.082999   1.000000   1.000000
    347         -7.080915       -7.081525   1.000000   1.000000
    348         -7.080597       -7.080970   1.000000   1.000000
    349         -7.075470       -7.074876   1.000000   1.000000
    350         -7.075454       -7.074859   1.000000   1.000000
    351         -7.054599       -7.054748   1.000000   1.000000
    352         -7.054591       -7.054740   1.000000   1.000000
    353         -7.047128       -7.047431   1.000000   1.000000
    354         -7.045478       -7.045568   1.000000   1.000000
    355         -7.045472       -7.045563   1.000000   1.000000
    356         -7.033218       -7.032461   1.000000   1.000000
    357         -7.033193       -7.032436   1.000000   1.000000
    358         -7.031917       -7.031711   1.000000   1.000000
    359         -7.027372       -7.027731   1.000000   1.000000
    360         -7.026661       -7.026370   1.000000   1.000000
    361         -7.026656       -7.026363   1.000000   1.000000
    362         -7.024765       -7.023950   1.000000   1.000000
    363         -7.017892       -7.017147   1.000000   1.000000
    364         -7.017873       -7.013920   1.000000   1.000000
    365         -7.017275       -7.013901   1.000000   1.000000
    366         -7.009006       -7.008996   1.000000   1.000000
    367         -6.997187       -6.997493   1.000000   1.000000
    368         -6.997181       -6.997486   1.000000   1.000000
    369         -6.993317       -6.992871   1.000000   1.000000
    370         -6.993278       -6.992832   1.000000   1.000000
    371         -6.972687       -6.972867   1.000000   1.000000
    372         -6.965127       -6.965791   1.000000   1.000000
    373         -6.965106       -6.965770   1.000000   1.000000
    374         -6.946377       -6.946082   1.000000   1.000000
    375         -6.941540       -6.939352   1.000000   1.000000
    376         -6.941539       -6.939348   1.000000   1.000000
    377         -6.933998       -6.931588   1.000000   1.000000
    378         -6.933986       -6.931570   1.000000   1.000000
    379         -6.928657       -6.925966   1.000000   1.000000
    380         -6.926072       -6.925268   1.000000   1.000000
    381         -6.918590       -6.919049   1.000000   1.000000
    382         -6.918574       -6.919034   1.000000   1.000000
    383         -6.914215       -6.913779   1.000000   1.000000
    384         -6.907608       -6.906772   1.000000   1.000000
    385         -6.903507       -6.903591   1.000000   1.000000
    386         -6.903495       -6.903580   1.000000   1.000000
    387         -6.897721       -6.898329   1.000000   1.000000
    388         -6.897716       -6.898324   1.000000   1.000000
    389         -6.895612       -6.895626   1.000000   1.000000
    390         -6.881679       -6.881470   1.000000   1.000000
    391         -6.877995       -6.877392   1.000000   1.000000
    392         -6.877985       -6.877382   1.000000   1.000000
    393         -6.871580       -6.871986   1.000000   1.000000
    394         -6.862668       -6.861899   1.000000   1.000000
    395         -6.862658       -6.861891   1.000000   1.000000
    396         -6.848331       -6.846278   1.000000   1.000000
    397         -6.848330       -6.846276   1.000000   1.000000
    398         -6.843838       -6.843792   1.000000   1.000000
    399         -6.837610       -6.837856   1.000000   1.000000
    400         -6.837604       -6.837849   1.000000   1.000000
    401         -6.826294       -6.826247   1.000000   1.000000
    402         -6.825371       -6.825530   1.000000   1.000000
    403         -6.822472       -6.821634   1.000000   1.000000
    404         -6.822462       -6.821624   1.000000   1.000000
    405         -6.813739       -6.813477   1.000000   1.000000
    406         -6.813716       -6.813454   1.000000   1.000000
    407         -6.810045       -6.810228   1.000000   1.000000
    408         -6.805124       -6.804845   1.000000   1.000000
    409         -6.805120       -6.804843   1.000000   1.000000
    410         -6.793482       -6.793401   1.000000   1.000000
    411         -6.793101       -6.793390   1.000000   1.000000
    412         -6.793092       -6.793220   1.000000   1.000000
    413         -6.791462       -6.791926   1.000000   1.000000
    414         -6.783290       -6.782458   1.000000   1.000000
    415         -6.778753       -6.777465   1.000000   1.000000
    416         -6.778748       -6.777464   1.000000   1.000000
    417         -6.769863       -6.769780   1.000000   1.000000
    418         -6.769030       -6.769435   1.000000   1.000000
    419         -6.769029       -6.769432   1.000000   1.000000
    420         -6.752837       -6.752647   1.000000   1.000000
    421         -6.748254       -6.748834   1.000000   1.000000
    422         -6.748252       -6.748832   1.000000   1.000000
    423         -6.747573       -6.748275   1.000000   1.000000
    424         -6.742122       -6.742445   1.000000   1.000000
    425         -6.742115       -6.742437   1.000000   1.000000
    426         -6.738441       -6.740784   1.000000   1.000000
    427         -6.724942       -6.725619   1.000000   1.000000
    428         -6.724938       -6.725615   1.000000   1.000000
    429         -6.709194       -6.708621   1.000000   1.000000
    430         -6.709189       -6.708611   1.000000   1.000000
    431         -6.709168       -6.708359   1.000000   1.000000
    432         -6.704238       -6.704218   1.000000   1.000000
    433         -6.704223       -6.704204   1.000000   1.000000
    434         -6.698196       -6.698656   1.000000   1.000000
    435         -6.689638       -6.687932   1.000000   1.000000
    436         -6.689637       -6.687931   1.000000   1.000000
    437         -6.679701       -6.679836   1.000000   1.000000
    438         -6.679687       -6.679822   1.000000   1.000000
    439         -6.675437       -6.675849   1.000000   1.000000
    440         -6.667660       -6.667888   1.000000   1.000000
    441         -6.667651       -6.667787   1.000000   1.000000
    442         -6.667475       -6.667777   1.000000   1.000000
    443         -6.662492       -6.663070   1.000000   1.000000
    444         -6.662460       -6.660737   1.000000   1.000000
    445         -6.659485       -6.659489   1.000000   1.000000
    446         -6.659484       -6.659487   1.000000   1.000000
    447         -6.651420       -6.651658   1.000000   1.000000
    448         -6.645988       -6.645917   1.000000   1.000000
    449         -6.645977       -6.645907   1.000000   1.000000
    450         -6.643009       -6.642794   1.000000   1.000000
    451         -6.642285       -6.642786   1.000000   1.000000
    452         -6.642276       -6.641928   1.000000   1.000000
    453         -6.629682       -6.630258   1.000000   1.000000
    454         -6.628735       -6.628683   1.000000   1.000000
    455         -6.628735       -6.628682   1.000000   1.000000
    456         -6.622813       -6.623239   1.000000   1.000000
    457         -6.622813       -6.623238   1.000000   1.000000
    458         -6.620239       -6.620634   1.000000   1.000000
    459         -6.613191       -6.613648   1.000000   1.000000
    460         -6.613185       -6.613642   1.000000   1.000000
    461         -6.602458       -6.602778   1.000000   1.000000
    462         -6.601036       -6.600295   1.000000   1.000000
    463         -6.601024       -6.600282   1.000000   1.000000
    464         -6.597816       -6.598035   1.000000   1.000000