       N       E                     dE             d eps       ncg     rms          ort
SDA:   1    -0.122204727056E+04   -0.12220E+04   -0.24467E-01  1056   0.816E-01 0.000E+00
DMP:   2    -0.122206681495E+04   -0.19544E-01   -0.20400E-01  1056   0.403E-01 0.487E-01
DMP:   3    -0.122208304629E+04   -0.16231E-01   -0.15041E-01  1056   0.273E-01 0.401E-01
DMP:   4    -0.122209544090E+04   -0.12395E-01   -0.10193E-01  1056   0.155E-01 0.325E-01
DMP:   5    -0.122210343431E+04   -0.79934E-02   -0.51973E-02  1056   0.632E-02 0.193E-01
DMP:   6    -0.122210722585E+04   -0.37915E-02   -0.21104E-02  1056   0.249E-02 0.797E-02
DMP:   7    -0.122210862893E+04   -0.14031E-02   -0.74107E-03  1056   0.114E-02 0.234E-02
DMP:   8    -0.122210904386E+04   -0.41493E-03   -0.22606E-03  1056   0.574E-03 0.315E-03
DMP:   9    -0.122210913124E+04   -0.87377E-04   -0.11383E-03  1056   0.468E-03-0.155E-03
DMP:  10    -0.122210919784E+04   -0.66601E-04   -0.14375E-03  1056   0.435E-03 0.773E-04
DMP:  11    -0.122210931306E+04   -0.11522E-03   -0.13452E-03  1056   0.279E-03 0.298E-03
DMP:  12    -0.122210941741E+04   -0.10435E-03   -0.78250E-04  1056   0.117E-03 0.252E-03
DMP:  13    -0.122210947108E+04   -0.53675E-04   -0.22141E-04  1056   0.181E-04 0.978E-04
DMP:  14    -0.122210947829E+04   -0.72098E-05    0.11076E-04  1056  -0.207E-04-0.284E-04
DMP:  15    -0.122210946240E+04    0.15895E-04    0.15271E-04  1056  -0.862E-05-0.742E-04
DMP:  16    -0.122210944946E+04    0.12935E-04    0.11315E-05  1056   0.199E-04-0.416E-04
DMP:  17    -0.122210945236E+04   -0.28920E-05   -0.13199E-04  1056   0.342E-04 0.171E-04
DMP:  18    -0.122210946750E+04   -0.15142E-04   -0.17589E-04  1056   0.288E-04 0.523E-04
DMP:  19    -0.122210948427E+04   -0.16771E-04   -0.12206E-04  1056   0.120E-04 0.503E-04
DMP:  20    -0.122210949417E+04   -0.98972E-05   -0.31024E-05  1056  -0.344E-05 0.242E-04
DMP:  21    -0.122210949516E+04   -0.99011E-06    0.34912E-05  1056  -0.970E-05-0.339E-05
DMP:  22    -0.122210949069E+04    0.44699E-05    0.50495E-05  1056  -0.729E-05-0.167E-04
DMP:  23    -0.122210948569E+04    0.49942E-05    0.28423E-05  1056  -0.126E-05-0.144E-04
DMP:  24    -0.122210948329E+04    0.23995E-05   -0.25562E-06  1056   0.329E-05-0.428E-05
DMP:  25    -0.122210948379E+04   -0.49669E-06   -0.20186E-05  1056   0.417E-05 0.449E-05
DMP:  26    -0.122210948566E+04   -0.18661E-05   -0.19394E-05  1056   0.235E-05 0.722E-05
DMP:  27    -0.122210948721E+04   -0.15560E-05   -0.79471E-06  1056  -0.528E-07 0.474E-05
DMP:  28    -0.122210948767E+04   -0.46132E-06    0.33619E-06  1056  -0.144E-05 0.562E-06
   1 F= -.12221095E+04 E0= -.12221095E+04  d E =-.122211E+04  mag=     2.0000
       N       E                     dE             d eps       ncg     rms          ort
SDA:   1    -0.122195576336E+04    0.15372E+00   -0.11512E+00  1056   0.384E+00 0.000E+00
DMP:   2    -0.122204601115E+04   -0.90248E-01   -0.81051E-01  1056   0.146E+00 0.218E+00
DMP:   3    -0.122209943059E+04   -0.53419E-01   -0.28823E-01  1056   0.471E-01 0.860E-01
DMP:   4    -0.122211423882E+04   -0.14808E-01   -0.71053E-02  1056   0.222E-01 0.265E-02
DMP:   5    -0.122211522500E+04   -0.98619E-03   -0.13154E-02  1056   0.141E-01-0.171E-01
DMP:   6    -0.122211430795E+04    0.91705E-03   -0.22696E-02  1056   0.136E-01-0.105E-01
DMP:   7    -0.122211567962E+04   -0.13717E-02   -0.33642E-02  1056   0.103E-01 0.157E-02
DMP:   8    -0.122211814591E+04   -0.24663E-02   -0.24064E-02  1056   0.504E-02 0.523E-02
DMP:   9    -0.122211974341E+04   -0.15975E-02   -0.10118E-02  1056   0.187E-02 0.263E-02
DMP:  10    -0.122212029599E+04   -0.55258E-03   -0.32452E-03  1056   0.904E-03 0.312E-03
DMP:  11    -0.122212041350E+04   -0.11751E-03   -0.11717E-03  1056   0.561E-03-0.298E-03
DMP:  12    -0.122212043901E+04   -0.25513E-04   -0.85990E-04  1056   0.412E-03-0.220E-03
DMP:  13    -0.122212048324E+04   -0.44227E-04   -0.93513E-04  1056   0.307E-03 0.888E-05
DMP:  14    -0.122212054805E+04   -0.64808E-04   -0.72944E-04  1056   0.174E-03 0.121E-03
DMP:  15    -0.122212059762E+04   -0.49573E-04   -0.39157E-04  1056   0.801E-04 0.884E-04
DMP:  16    -0.122212062197E+04   -0.24347E-04   -0.17258E-04  1056   0.390E-04 0.326E-04
DMP:  17    -0.122212063144E+04   -0.94722E-05   -0.74147E-05  1056   0.213E-04 0.605E-05
DMP:  18    -0.122212063495E+04   -0.35114E-05   -0.36370E-05  1056   0.128E-04-0.112E-05
DMP:  19    -0.122212063670E+04   -0.17493E-05   -0.24723E-05  1056   0.853E-05-0.507E-06
DMP:  20    -0.122212063820E+04   -0.14966E-05   -0.18697E-05  1056   0.539E-05 0.147E-05
DMP:  21    -0.122212063945E+04   -0.12518E-05   -0.11758E-05  1056   0.292E-05 0.175E-05
DMP:  22    -0.122212064024E+04   -0.79484E-06   -0.64485E-06  1056   0.157E-05 0.102E-05
   2 F= -.12221206E+04 E0= -.12221206E+04  d E =-.111526E-01  mag=     2.0000
       N       E                     dE             d eps       ncg     rms          ort
SDA:   1    -0.122111255803E+04    0.10081E+01   -0.71065E+00  1056   0.237E+01 0.000E+00
DMP:   2    -0.122167018711E+04   -0.55763E+00   -0.50530E+00  1056   0.916E+00 0.135E+01
DMP:   3    -0.122200211959E+04   -0.33193E+00   -0.17828E+00  1056   0.293E+00 0.529E+00
DMP:   4    -0.122209186807E+04   -0.89748E-01   -0.41854E-01  1056   0.137E+00 0.411E-02
DMP:   5    -0.122209515337E+04   -0.32853E-02   -0.62608E-02  1056   0.879E-01-0.118E+00
DMP:   6    -0.122208788396E+04    0.72694E-02   -0.14482E-01  1056   0.878E-01-0.694E-01
DMP:   7    -0.122209709634E+04   -0.92124E-02   -0.22201E-01  1056   0.665E-01 0.131E-01
DMP:   8    -0.122211345449E+04   -0.16358E-01   -0.15400E-01  1056   0.314E-01 0.350E-01
DMP:   9    -0.122212358021E+04   -0.10126E-01   -0.61655E-02  1056   0.113E-01 0.162E-01
DMP:  10    -0.122212680668E+04   -0.32265E-02   -0.17694E-02  1056   0.535E-02 0.965E-03
DMP:  11    -0.122212728325E+04   -0.47657E-03   -0.56428E-03  1056   0.343E-02-0.272E-02
DMP:  12    -0.122212731127E+04   -0.28013E-04   -0.53715E-03  1056   0.276E-02-0.170E-02
DMP:  13    -0.122212761024E+04   -0.29898E-03   -0.66283E-03  1056   0.209E-02 0.204E-03
DMP:  14    -0.122212808514E+04   -0.47490E-03   -0.50291E-03  1056   0.113E-02 0.960E-03
DMP:  15    -0.122212842654E+04   -0.34140E-03   -0.24702E-03  1056   0.479E-03 0.603E-03
DMP:  16    -0.122212857378E+04   -0.14724E-03   -0.94293E-04  1056   0.223E-03 0.161E-03
DMP:  17    -0.122212861905E+04   -0.45268E-04   -0.36869E-04  1056   0.130E-03-0.117E-04
DMP:  18    -0.122212863316E+04   -0.14110E-04   -0.21061E-04  1056   0.866E-04-0.287E-04
DMP:  19    -0.122212864331E+04   -0.10148E-04   -0.17544E-04  1056   0.601E-04-0.285E-05
DMP:  20    -0.122212865443E+04   -0.11123E-04   -0.13337E-04  1056   0.359E-04 0.150E-04
DMP:  21    -0.122212866322E+04   -0.87895E-05   -0.77512E-05  1056   0.183E-04 0.132E-04
DMP:  22    -0.122212866815E+04   -0.49237E-05   -0.39834E-05  1056   0.988E-05 0.597E-05
DMP:  23    -0.122212867070E+04   -0.25537E-05   -0.22799E-05  1056   0.600E-05 0.281E-05
DMP:  24    -0.122212867226E+04   -0.15564E-05   -0.13925E-05  1056   0.347E-05 0.205E-05
DMP:  25    -0.122212867323E+04   -0.97031E-06   -0.78709E-06  1056   0.183E-05 0.139E-05
   3 F= -.12221287E+04 E0= -.12221287E+04  d E =-.191856E-01  mag=     2.0000
       N       E                     dE             d eps       ncg     rms          ort
SDA:   1    -0.122193477431E+04    0.19390E+00   -0.13406E+00  1056   0.447E+00 0.000E+00
DMP:   2    -0.122204254751E+04   -0.10777E+00   -0.10136E+00  1056   0.183E+00 0.272E+00
DMP:   3    -0.122211076329E+04   -0.68216E-01   -0.35504E-01  1056   0.517E-01 0.117E+00
DMP:   4    -0.122212881703E+04   -0.18054E-01   -0.76137E-02  1056   0.242E-01 0.201E-02
DMP:   5    -0.122212933287E+04   -0.51584E-03   -0.13373E-02  1056   0.170E-01-0.220E-01
DMP:   6    -0.122212814459E+04    0.11883E-02   -0.27615E-02  1056   0.163E-01-0.124E-01
DMP:   7    -0.122212991795E+04   -0.17734E-02   -0.41820E-02  1056   0.125E-01 0.261E-02
DMP:   8    -0.122213305250E+04   -0.31345E-02   -0.29668E-02  1056   0.592E-02 0.696E-02
DMP:   9    -0.122213504402E+04   -0.19915E-02   -0.12103E-02  1056   0.210E-02 0.339E-02
DMP:  10    -0.122213570221E+04   -0.65820E-03   -0.35802E-03  1056   0.990E-03 0.357E-03
DMP:  11    -0.122213582018E+04   -0.11797E-03   -0.12604E-03  1056   0.651E-03-0.406E-03
DMP:  12    -0.122213584382E+04   -0.23633E-04   -0.10591E-03  1056   0.502E-03-0.261E-03
DMP:  13    -0.122213590290E+04   -0.59080E-04   -0.12147E-03  1056   0.380E-03 0.432E-04
DMP:  14    -0.122213599043E+04   -0.87532E-04   -0.95596E-04  1056   0.215E-03 0.182E-03
DMP:  15    -0.122213605666E+04   -0.66229E-04   -0.49052E-04  1056   0.922E-04 0.125E-03
DMP:  16    -0.122213608673E+04   -0.30070E-04   -0.18614E-04  1056   0.405E-04 0.378E-04
DMP:  17    -0.122213609585E+04   -0.91261E-05   -0.61909E-05  1056   0.216E-04-0.168E-05
DMP:  18    -0.122213609779E+04   -0.19402E-05   -0.26152E-05  1056   0.138E-04-0.899E-05
DMP:  19    -0.122213609873E+04   -0.93499E-06   -0.25340E-05  1056   0.108E-04-0.404E-05
DMP:  20    -0.122213610058E+04   -0.18500E-05   -0.27654E-05  1056   0.782E-05 0.245E-05
DMP:  21    -0.122213610287E+04   -0.22917E-05   -0.22733E-05  1056   0.475E-05 0.496E-05
DMP:  22    -0.122213610473E+04   -0.18623E-05   -0.14174E-05  1056   0.237E-05 0.413E-05
DMP:  23    -0.122213610581E+04   -0.10723E-05   -0.59088E-06  1056   0.769E-06 0.211E-05
DMP:  24    -0.122213610613E+04   -0.32384E-06   -0.35981E-07  1056   0.819E-10 0.210E-06
   4 F= -.12221361E+04 E0= -.12221361E+04  d E =-.743290E-02  mag=     2.0000
       N       E                     dE             d eps       ncg     rms          ort
SDA:   1    -0.122209964502E+04    0.36461E-01   -0.24806E-01  1056   0.827E-01 0.000E+00
DMP:   2    -0.122211958351E+04   -0.19938E-01   -0.18639E-01  1056   0.335E-01 0.502E-01
DMP:   3    -0.122213216010E+04   -0.12577E-01   -0.65809E-02  1056   0.956E-02 0.217E-01
DMP:   4    -0.122213556455E+04   -0.34044E-02   -0.14893E-02  1056   0.453E-02 0.759E-03
DMP:   5    -0.122213575167E+04   -0.18712E-03   -0.29041E-03  1056   0.309E-02-0.372E-02
DMP:   6    -0.122213556669E+04    0.18498E-03   -0.49445E-03  1056   0.291E-02-0.221E-02
DMP:   7    -0.122213587418E+04   -0.30749E-03   -0.73738E-03  1056   0.223E-02 0.399E-03
DMP:   8    -0.122213642478E+04   -0.55059E-03   -0.53499E-03  1056   0.109E-02 0.121E-02
DMP:   9    -0.122213678707E+04   -0.36229E-03   -0.22919E-03  1056   0.403E-03 0.633E-03
DMP:  10    -0.122213691610E+04   -0.12903E-03   -0.73199E-04  1056   0.188E-03 0.976E-04
DMP:  11    -0.122213694461E+04   -0.28510E-04   -0.27267E-04  1056   0.121E-03-0.532E-04
DMP:  12    -0.122213695232E+04   -0.77103E-05   -0.20204E-04  1056   0.895E-04-0.388E-04
DMP:  13    -0.122213696323E+04   -0.10911E-04   -0.20932E-04  1056   0.661E-04 0.647E-05
DMP:  14    -0.122213697783E+04   -0.14605E-04   -0.16441E-04  1056   0.384E-04 0.288E-04
DMP:  15    -0.122213698912E+04   -0.11288E-04   -0.89074E-05  1056   0.175E-04 0.214E-04
DMP:  16    -0.122213699467E+04   -0.55501E-05   -0.36870E-05  1056   0.793E-05 0.766E-05
DMP:  17    -0.122213699663E+04   -0.19626E-05   -0.13230E-05  1056   0.406E-05 0.609E-06
DMP:  18    -0.122213699719E+04   -0.55518E-06   -0.51323E-06  1056   0.243E-05-0.126E-05
   5 F= -.12221370E+04 E0= -.12221370E+04  d E =-.832396E-02  mag=     2.0000
