 vasp.6.4.2 20Jul23 (build Oct 07 2023 16:32:06) gamma-only                     
  
 executed on             bridges2 date 2024.10.25  21:19:46
 running  768 mpi-ranks, on    6 nodes
 distrk:  each k-point on  384 cores,    2 groups
 distr:  one band on NCORE=   8 cores,   48 groups


--------------------------------------------------------------------------------------------------------


 INCAR:
   SYSTEM = zno
   PREC = Normal
   ISTART = 1
   ICHARG = 1
   ISPIN = 2
   MAGMOM = 76*0.0 1*1.0 2*0.0 1*1.0 11*0.0 1*1.0 78*0.0 1*1.0 2*0.0 1*1.0 11*0.0 1*1.0 4*0.0 1*1.4
   FERWE = 860*1 2*1 1*0 193*0
   FERDO = 859*1 1*0 1*1 195*0
   NCORE = 8
   KPAR = 2
   NELECT = 1722
   ENCUT = 400
   NELM = 1000
   NELMIN = 4
   EDIFF = 1E-06
   LREAL = Auto
   EDIFFG = +1E-02
   NSW = 30
   IBRION = 2
   ISIF = 2
   ISYM = 3
   POTIM = 0.2
   ISMEAR = -2
   SIGMA = 0.005
   NBANDS = 1056
   LWAVE = T
   LCHARG = T
   LVHAR = T
   LVTOT = F
   LELF = F
   LORBIT = 11
   ALGO = Damped
   TIME = 0.3
   LHFCALC = T
   HFSCREEN = 0.2
   AEXX = 0.375
   GGA = PE

 POTCAR:    PAW_PBE Zn 06Sep2000                  
 POTCAR:    PAW_PBE O 08Apr2002                   
 POTCAR:    PAW_PBE Mo_sv 02Feb2006               
 -----------------------------------------------------------------------------
|                                                                             |
|           W    W    AA    RRRRR   N    N  II  N    N   GGGG   !!!           |
|           W    W   A  A   R    R  NN   N  II  NN   N  G    G  !!!           |
|           W    W  A    A  R    R  N N  N  II  N N  N  G       !!!           |
|           W WW W  AAAAAA  RRRRR   N  N N  II  N  N N  G  GGG   !            |
|           WW  WW  A    A  R   R   N   NN  II  N   NN  G    G                |
|           W    W  A    A  R    R  N    N  II  N    N   GGGG   !!!           |
|                                                                             |
|     For optimal performance we recommend to set                             |
|       NCORE = 2 up to number-of-cores-per-socket                            |
|     NCORE specifies how many cores store one orbital (NPAR=cpu/NCORE).      |
|     This setting can greatly improve the performance of VASP for DFT.       |
|     The default, NCORE=1 might be grossly inefficient on modern             |
|     multi-core architectures or massively parallel machines. Do your        |
|     own testing! More info at https://www.vasp.at/wiki/index.php/NCORE      |
|     Unfortunately you need to use the default for GW and RPA                |
|     calculations (for HF NCORE is supported but not extensively tested      |
|     yet).                                                                   |
|                                                                             |
 -----------------------------------------------------------------------------

 POTCAR:    PAW_PBE Zn 06Sep2000                  
   SHA256 =  501fddbd8274dd8e9725d4f3de27861d7f1e553a7e18441bc79fed8f346e7f23 Zn/POTCAR             
   COPYR  = (c) Copyright 06Sep2000 Georg Kresse                                                    
   COPYR  = This file is part of the software VASP. Any use, copying, and all other rights are regul
   COPYR  = If you do not have a valid VASP license, you may not use, copy or distribute this file. 
   VRHFIN =Zn: d10 p2                                                                               
   LEXCH  = PE                                                                                      
   EATOM  =  1748.8345 eV,  128.5357 Ry                                                             
                                                                                                    
   TITEL  = PAW_PBE Zn 06Sep2000                                                                    
   LULTRA =        F    use ultrasoft PP ?                                                          
   IUNSCR =        1    unscreen: 0-lin 1-nonlin 2-no                                               
   RPACOR =    2.000    partial core radius                                                         
   POMASS =   65.390; ZVAL   =   12.000    mass and valenz                                          
   RCORE  =    2.300    outmost cutoff radius                                                       
   RWIGS  =    2.400; RWIGS  =    1.270    wigner-seitz radius (au A)                               
   ENMAX  =  276.723; ENMIN  =  207.542 eV                                                          
   RCLOC  =    1.828    cutoff for local pot                                                        
   LCOR   =        T    correct aug charges                                                         
   LPAW   =        T    paw PP                                                                      
   EAUG   =  575.892                                                                                
   DEXC   =    0.000                                                                                
   RMAX   =    2.347    core radius for proj-oper                                                   
   RAUG   =    1.300    factor for augmentation sphere                                              
   RDEP   =    2.324    radius for radial grids                                                     
   RDEPT  =    1.788    core radius for aug-charge                                                  
                                                                                                    
   Atomic configuration                                                                             
    9 entries                                                                                       
     n  l   j            E        occ.                                                              
     1  0  0.50     -9524.6913   2.0000                                                             
     2  0  0.50     -1158.1882   2.0000                                                             
     2  1  1.50     -1003.8506   6.0000                                                             
     3  0  0.50      -129.2194   2.0000                                                             
     3  1  1.50       -83.3890   6.0000                                                             
     3  2  2.50       -10.1410  10.0000                                                             
     4  0  0.50        -5.9785   2.0000                                                             
     4  1  0.50        -4.0817   0.0000                                                             
     4  3  2.50        -1.3606   0.0000                                                             
   Description                                                                                      
     l       E           TYP  RCUT    TYP  RCUT                                                     
     2    -10.1410010     23  2.300                                                                 
     2    -11.5015836     23  2.300                                                                 
     0     -5.9785163     23  2.300                                                                 
     0      1.1858015     23  2.300                                                                 
     1     -2.7211652     23  2.300                                                                 
     1     13.2444212     23  2.300                                                                 
  local pseudopotential read in
  partial core-charges read in
  partial kinetic energy density read in
  atomic valenz-charges read in
  non local Contribution for L=           2  read in
    real space projection operators read in
  non local Contribution for L=           2  read in
    real space projection operators read in
  non local Contribution for L=           0  read in
    real space projection operators read in
  non local Contribution for L=           0  read in
    real space projection operators read in
  non local Contribution for L=           1  read in
    real space projection operators read in
  non local Contribution for L=           1  read in
    real space projection operators read in
    PAW grid and wavefunctions read in
 
   number of l-projection  operators is LMAX  =           6
   number of lm-projection operators is LMMAX =          18
 
 POTCAR:    PAW_PBE O 08Apr2002                   
   SHA256 =  818f92134a0a090dccd8ba1447fa70422a3b330e708bb4f08108d8ae51209ddf O/POTCAR              
   COPYR  = (c) Copyright 08Apr2002 Georg Kresse                                                    
   COPYR  = This file is part of the software VASP. Any use, copying, and all other rights are regul
   COPYR  = If you do not have a valid VASP license, you may not use, copy or distribute this file. 
   VRHFIN =O: s2p4                                                                                  
   LEXCH  = PE                                                                                      
   EATOM  =   432.3788 eV,   31.7789 Ry                                                             
                                                                                                    
   TITEL  = PAW_PBE O 08Apr2002                                                                     
   LULTRA =        F    use ultrasoft PP ?                                                          
   IUNSCR =        1    unscreen: 0-lin 1-nonlin 2-no                                               
   RPACOR =    1.200    partial core radius                                                         
   POMASS =   16.000; ZVAL   =    6.000    mass and valenz                                          
   RCORE  =    1.520    outmost cutoff radius                                                       
   RWIGS  =    1.550; RWIGS  =    0.820    wigner-seitz radius (au A)                               
   ENMAX  =  400.000; ENMIN  =  300.000 eV                                                          
   ICORE  =        2    local potential                                                             
   LCOR   =        T    correct aug charges                                                         
   LPAW   =        T    paw PP                                                                      
   EAUG   =  605.392                                                                                
   DEXC   =    0.000                                                                                
   RMAX   =    1.553    core radius for proj-oper                                                   
   RAUG   =    1.300    factor for augmentation sphere                                              
   RDEP   =    1.550    radius for radial grids                                                     
   RDEPT  =    1.329    core radius for aug-charge                                                  
                                                                                                    
   Atomic configuration                                                                             
    4 entries                                                                                       
     n  l   j            E        occ.                                                              
     1  0  0.50      -514.6923   2.0000                                                             
     2  0  0.50       -23.9615   2.0000                                                             
     2  1  0.50        -9.0305   4.0000                                                             
     3  2  1.50        -9.5241   0.0000                                                             
   Description                                                                                      
     l       E           TYP  RCUT    TYP  RCUT                                                     
     0    -23.9615318     23  1.200                                                                 
     0     -9.5240782     23  1.200                                                                 
     1     -9.0304911     23  1.520                                                                 
     1      8.1634956     23  1.520                                                                 
     2     -9.5240782      7  1.500                                                                 
  local pseudopotential read in
  partial core-charges read in
  partial kinetic energy density read in
  kinetic energy density of atom read in
  atomic valenz-charges read in
  non local Contribution for L=           0  read in
    real space projection operators read in
  non local Contribution for L=           0  read in
    real space projection operators read in
  non local Contribution for L=           1  read in
    real space projection operators read in
  non local Contribution for L=           1  read in
    real space projection operators read in
    PAW grid and wavefunctions read in
 
   number of l-projection  operators is LMAX  =           4
   number of lm-projection operators is LMMAX =           8
 
 POTCAR:    PAW_PBE Mo_sv 02Feb2006               
   SHA256 =  2731df97e41766cc617548c5a8267718fdef1f509ac6bafa01e745abea2bdfaa Mo_sv/POTCAR          
   COPYR  = (c) Copyright 02Feb2006 Georg Kresse                                                    
   COPYR  = This file is part of the software VASP. Any use, copying, and all other rights are regul
   COPYR  = If you do not have a valid VASP license, you may not use, copy or distribute this file. 
   VRHFIN =Mo: 4p5s4d                                                                               
   LEXCH  = PE                                                                                      
   EATOM  =  1862.2866 eV,  136.8742 Ry                                                             
                                                                                                    
   TITEL  = PAW_PBE Mo_sv 02Feb2006                                                                 
   LULTRA =        F    use ultrasoft PP ?                                                          
   IUNSCR =        1    unscreen: 0-lin 1-nonlin 2-no                                               
   RPACOR =    2.200    partial core radius                                                         
   POMASS =   95.940; ZVAL   =   14.000    mass and valenz                                          
   RCORE  =    2.500    outmost cutoff radius                                                       
   RWIGS  =    2.750; RWIGS  =    1.455    wigner-seitz radius (au A)                               
   ENMAX  =  242.676; ENMIN  =  182.007 eV                                                          
   ICORE  =        3    local potential                                                             
   LCOR   =        T    correct aug charges                                                         
   LPAW   =        T    paw PP                                                                      
   EAUG   =  446.014                                                                                
   DEXC   =    0.000                                                                                
   RMAX   =    2.563    core radius for proj-oper                                                   
   RAUG   =    1.300    factor for augmentation sphere                                              
   RDEP   =    2.641    radius for radial grids                                                     
   RDEPT  =    2.031    core radius for aug-charge                                                  
                                                                                                    
   Atomic configuration                                                                             
   11 entries                                                                                       
     n  l   j            E        occ.                                                              
     1  0  0.50    -19819.0341   2.0000                                                             
     2  0  0.50     -2799.0127   2.0000                                                             
     2  1  1.50     -2502.0276   6.0000                                                             
     3  0  0.50      -476.4449   2.0000                                                             
     3  1  1.50      -379.1496   6.0000                                                             
     3  2  2.50      -220.9367  10.0000                                                             
     4  0  0.50       -64.3378   2.0000                                                             
     5  0  0.50        -4.0862   1.0000                                                             
     4  1  1.50       -38.4773   6.0000                                                             
     4  2  2.50        -3.7535   5.0000                                                             
     4  3  2.50        -1.3606   0.0000                                                             
   Description                                                                                      
     l       E           TYP  RCUT    TYP  RCUT                                                     
     0    -64.3377829     23  2.100                                                                 
     0     -4.0861640     23  2.400                                                                 
     1    -38.4772993     23  2.100                                                                 
     1     13.6058260     23  2.100                                                                 
     2     -3.7534941     23  2.400                                                                 
     2     -5.1140767     23  2.400                                                                 
     3     -4.0817478     23  2.500                                                                 
  local pseudopotential read in
  partial core-charges read in
  partial kinetic energy density read in
  atomic valenz-charges read in
  non local Contribution for L=           0  read in
    real space projection operators read in
  non local Contribution for L=           0  read in
    real space projection operators read in
  non local Contribution for L=           1  read in
    real space projection operators read in
  non local Contribution for L=           1  read in
    real space projection operators read in
  non local Contribution for L=           2  read in
    real space projection operators read in
  non local Contribution for L=           2  read in
    real space projection operators read in
    PAW grid and wavefunctions read in
 
   number of l-projection  operators is LMAX  =           6
   number of lm-projection operators is LMMAX =          18
 
 Optimization of the real space projectors (new method)

 maximal supplied QI-value         = 16.25
 optimisation between [QCUT,QGAM] = [ 10.24, 20.48] = [ 29.35,117.42] Ry 
 Optimized for a Real-space Cutoff    1.38 Angstroem

   l    n(q)    QCUT    max X(q) W(low)/X(q) W(high)/X(q)  e(spline) 
   2      7    10.239    46.356    0.21E-03    0.48E-03    0.10E-06
   2      7    10.239    41.843    0.21E-03    0.50E-03    0.10E-06
   0      8    10.239    48.958    0.37E-03    0.79E-04    0.11E-06
   0      8    10.239    32.776    0.35E-03    0.73E-04    0.10E-06
   1      8    10.239    17.787    0.49E-03    0.70E-03    0.14E-06
   1      8    10.239    14.435    0.42E-03    0.61E-03    0.13E-06
 Optimization of the real space projectors (new method)

 maximal supplied QI-value         = 24.76
 optimisation between [QCUT,QGAM] = [ 10.15, 20.30] = [ 28.85,115.39] Ry 
 Optimized for a Real-space Cutoff    1.38 Angstroem

   l    n(q)    QCUT    max X(q) W(low)/X(q) W(high)/X(q)  e(spline) 
   0      8    10.150    20.381    0.22E-03    0.32E-03    0.29E-06
   0      8    10.150    15.268    0.23E-03    0.35E-03    0.30E-06
   1      8    10.150     5.964    0.46E-03    0.53E-03    0.21E-06
   1      8    10.150     5.382    0.38E-03    0.45E-03    0.19E-06
 Optimization of the real space projectors (new method)

 maximal supplied QI-value         = 15.12
 optimisation between [QCUT,QGAM] = [ 10.13, 20.41] = [ 28.73,116.64] Ry 
 Optimized for a Real-space Cutoff    1.55 Angstroem

   l    n(q)    QCUT    max X(q) W(low)/X(q) W(high)/X(q)  e(spline) 
   0      9    10.129     3.559    0.15E-04    0.17E-04    0.57E-07
   0      9    10.129    20.730    0.48E-04    0.15E-04    0.66E-07
   1      9    10.129     3.279    0.16E-05    0.10E-04    0.27E-07
   1      9    10.129     4.693    0.32E-03    0.57E-04    0.21E-06
   2      9    10.129    67.616    0.48E-03    0.12E-03    0.44E-06
   2      9    10.129    62.420    0.48E-03    0.12E-03    0.45E-06
  PAW_PBE Zn 06Sep2000                  :
 energy of atom  1       EATOM=-1748.8345
 kinetic energy error for atom=    0.0107 (will be added to EATOM!!)
  PAW_PBE O 08Apr2002                   :
 energy of atom  2       EATOM= -432.3788
 kinetic energy error for atom=    0.1156 (will be added to EATOM!!)
  PAW_PBE Mo_sv 02Feb2006               :
 energy of atom  3       EATOM=-1862.2866
 kinetic energy error for atom=    0.0181 (will be added to EATOM!!)
 
 
 POSCAR:   Zn2 O2
  positions in direct lattice
  velocities in cartesian coordinates
 exchange correlation table for  LEXCH =        8
   RHO(1)=    0.500       N(1)  =     2000
   RHO(2)=  100.500       N(2)  =     4000
 


--------------------------------------------------------------------------------------------------------


 ion  position               nearest neighbor table
   1  0.167  0.083  0.166- 143 1.97 152 1.97 155 1.97  96 1.99
   2  0.167  0.083  0.499- 144 1.96 153 1.98 156 1.98  97 1.98
   3  0.166  0.084  0.834-  98 1.97 145 1.98 154 1.99 157 1.99
   4  0.166  0.333  0.166- 143 1.97 146 1.97 158 1.98  99 1.99
   5  0.164  0.332  0.499- 144 1.97 147 1.97 100 1.98 159 2.00
   6  0.166  0.333  0.834- 101 1.97 145 1.98 148 1.98 160 1.99
   7  0.167  0.583  0.166- 146 1.97 161 1.97 149 1.97 102 1.99
   8  0.167  0.583  0.499- 147 1.96 162 1.98 150 1.98 103 1.98
   9  0.166  0.583  0.834- 104 1.97 148 1.98 163 1.99 151 1.99
  10  0.167  0.834  0.165- 164 1.97 149 1.97 152 1.97 105 1.99
  11  0.168  0.834  0.500- 165 1.96 150 1.98 153 1.98 106 1.98
  12  0.167  0.834  0.834- 107 1.97 166 1.98 151 1.99 154 1.99
  13  0.416  0.083  0.165- 164 1.97 167 1.97 155 1.97 108 1.99
  14  0.416  0.082  0.500- 165 1.96 168 1.98 156 1.98 109 1.98
  15  0.416  0.083  0.834- 110 1.97 166 1.98 169 1.99 157 1.99
  16  0.415  0.332  0.166- 155 1.96 158 1.96 170 1.98 111 2.01
  17  0.407  0.327  0.500- 156 1.92 159 1.94 112 1.97 171 2.07
  18  0.416  0.334  0.835- 113 1.96 160 1.97 157 1.97 172 2.00
  19  0.415  0.582  0.166- 161 1.96 158 1.96 173 1.98 114 2.01
  20  0.407  0.580  0.500- 162 1.92 159 1.94 115 1.97 174 2.07
  21  0.416  0.583  0.835- 116 1.96 160 1.97 163 1.97 175 2.00
  22  0.416  0.834  0.165- 164 1.97 161 1.97 176 1.97 117 1.99
  23  0.416  0.834  0.500- 165 1.96 162 1.98 177 1.98 118 1.98
  24  0.416  0.834  0.834- 119 1.97 166 1.98 163 1.99 178 1.99
  25  0.667  0.083  0.166- 179 1.97 176 1.97 167 1.97 120 1.99
  26  0.667  0.083  0.499- 180 1.96 177 1.98 168 1.98 121 1.98
  27  0.667  0.084  0.834- 122 1.97 181 1.98 178 1.99 169 1.99
  28  0.668  0.332  0.166- 167 1.96 182 1.96 170 1.98 123 2.01
  29  0.670  0.327  0.500- 168 1.92 183 1.94 124 1.97 171 2.07
  30  0.667  0.334  0.835- 125 1.96 184 1.97 169 1.97 172 2.00
  31  0.667  0.583  0.167- 170 1.96 185 1.96 173 1.96 126 2.10
  32  0.667  0.583  0.837- 127 1.95 172 1.98 187 1.98 175 1.98
  33  0.668  0.835  0.166- 176 1.96 188 1.96 173 1.98 128 2.01
  34  0.670  0.843  0.500- 177 1.92 189 1.94 129 1.97 174 2.07
  35  0.667  0.834  0.835- 130 1.96 190 1.97 178 1.97 175 2.00
  36  0.917  0.084  0.166- 143 1.97 179 1.97 188 1.98 131 1.99
  37  0.918  0.086  0.499- 144 1.97 180 1.97 132 1.98 189 2.00
  38  0.917  0.084  0.834- 133 1.97 145 1.98 181 1.98 190 1.99
  39  0.917  0.333  0.166- 146 1.97 179 1.97 182 1.98 134 1.99
  40  0.918  0.332  0.499- 147 1.97 180 1.97 135 1.98 183 2.00
  41  0.917  0.333  0.834- 136 1.97 148 1.98 181 1.98 184 1.99
  42  0.918  0.582  0.166- 149 1.96 182 1.96 185 1.98 137 2.01
  43  0.923  0.580  0.500- 150 1.92 183 1.94 138 1.97 186 2.07
  44  0.916  0.583  0.835- 139 1.96 184 1.97 151 1.97 187 2.00
  45  0.918  0.835  0.166- 152 1.96 188 1.96 185 1.98 140 2.01
  46  0.923  0.843  0.500- 153 1.92 189 1.94 141 1.97 186 2.07
  47  0.916  0.834  0.835- 142 1.96 190 1.97 154 1.97 187 2.00
  48  0.083  0.167  1.000- 133 1.98 101 1.98  98 1.98 143 1.98
  49  0.083  0.167  0.332- 131 1.97  99 1.97  96 1.97 144 1.99
  50  0.083  0.167  0.667- 145 1.97 132 1.98 100 1.98  97 1.99
  51  0.083  0.417  1.000- 136 1.98 101 1.98 104 1.98 146 1.98
  52  0.083  0.417  0.332- 134 1.97  99 1.97 102 1.97 147 1.99
  53  0.083  0.416  0.667- 148 1.97 135 1.98 100 1.98 103 1.99
  54  0.083  0.667  1.000- 107 1.97 104 1.97 139 1.98 149 1.98
  55  0.085  0.668  0.332- 102 1.96 105 1.96 137 1.98 150 2.00
  56  0.086  0.667  0.667- 103 1.96 151 1.96 106 1.97 138 2.01  92 3.04
  57  0.083  0.917  1.000- 107 1.97  98 1.97 142 1.98 152 1.98
  58  0.085  0.918  0.332-  96 1.96 105 1.96 140 1.98 153 2.00
  59  0.086  0.919  0.667-  97 1.96 154 1.96 106 1.97 141 2.01  92 3.04
  60  0.333  0.167  1.000- 110 1.97  98 1.97 113 1.98 155 1.98
  61  0.332  0.165  0.332-  96 1.96 108 1.96 111 1.98 156 2.00
  62  0.331  0.164  0.667-  97 1.96 157 1.96 109 1.97 112 2.01  77 3.04
  63  0.333  0.417  1.000- 101 1.97 116 1.98 113 1.98 158 1.99
  64  0.331  0.415  0.332-  99 1.95 114 1.97 111 1.97 159 1.99
  65  0.330  0.415  0.669- 160 1.95 100 1.95 115 1.99 112 1.99
  66  0.333  0.667  1.000- 119 1.97 104 1.97 116 1.98 161 1.98
  67  0.332  0.668  0.332- 102 1.96 117 1.96 114 1.98 162 2.00
  68  0.331  0.667  0.667- 103 1.96 163 1.96 118 1.97 115 2.01  80 3.04
  69  0.333  0.917  1.000- 110 1.98 107 1.98 119 1.98 164 1.98
  70  0.333  0.917  0.332- 108 1.97 105 1.97 117 1.97 165 1.99
  71  0.333  0.917  0.667- 166 1.97 109 1.99 106 1.99 118 1.99
  72  0.583  0.167  1.000- 110 1.97 122 1.97 125 1.98 167 1.98
  73  0.582  0.165  0.332- 120 1.96 108 1.96 123 1.98 168 2.00
  74  0.583  0.164  0.667- 121 1.96 169 1.96 109 1.97 124 2.01  77 3.04
  75  0.583  0.416  0.002- 113 1.97 125 1.97 127 1.98 170 2.00
  76  0.581  0.411  0.326- 111 1.92 123 1.92 126 1.97 171 2.17 191 3.18
  77  0.571  0.392  0.672- 112 1.91 124 1.91 172 1.91  62 3.04  74 3.04
  78  0.583  0.667  0.002- 130 1.97 116 1.97 127 1.98 173 2.00
  79  0.581  0.669  0.326- 128 1.92 114 1.92 126 1.97 174 2.17 191 3.18
  80  0.571  0.679  0.672- 129 1.91 115 1.91 175 1.91  68 3.04  83 3.04
  81  0.583  0.917  1.000- 119 1.97 122 1.97 130 1.98 176 1.98
  82  0.582  0.918  0.332- 120 1.96 117 1.96 128 1.98 177 2.00
  83  0.583  0.919  0.667- 121 1.96 178 1.96 118 1.97 129 2.01  80 3.04
  84  0.833  0.167  1.000- 136 1.98 133 1.98 122 1.98 179 1.98
  85  0.833  0.167  0.332- 134 1.97 131 1.97 120 1.97 180 1.99
  86  0.834  0.167  0.667- 181 1.97 135 1.98 132 1.98 121 1.99
  87  0.833  0.417  1.000- 136 1.97 139 1.98 125 1.98 182 1.99
  88  0.835  0.415  0.332- 134 1.95 137 1.97 123 1.97 183 1.99
  89  0.835  0.415  0.669- 184 1.95 135 1.95 138 1.99 124 1.99
  90  0.834  0.667  0.002- 142 1.97 139 1.97 127 1.98 185 2.00
  91  0.839  0.669  0.326- 140 1.92 137 1.92 126 1.97 186 2.17 191 3.18
  92  0.858  0.679  0.672- 141 1.91 138 1.91 187 1.91  59 3.04  56 3.04
  93  0.833  0.917  1.000- 133 1.97 130 1.98 142 1.98 188 1.99
  94  0.835  0.919  0.332- 131 1.95 128 1.97 140 1.97 189 1.99
  95  0.835  0.920  0.669- 190 1.95 132 1.95 129 1.99 141 1.99
  96  0.167  0.083  0.293-  58 1.96  61 1.96  49 1.97   1 1.99
  97  0.167  0.083  0.626-  59 1.96  62 1.96   2 1.98  50 1.99
  98  0.167  0.083  0.960-   3 1.97  57 1.97  60 1.97  48 1.98
  99  0.167  0.333  0.293-  64 1.95  49 1.97  52 1.97   4 1.99
 100  0.167  0.334  0.626-  65 1.95  50 1.98  53 1.98   5 1.98
 101  0.167  0.334  0.960-  63 1.97   6 1.97  48 1.98  51 1.98
 102  0.167  0.583  0.293-  67 1.96  55 1.96  52 1.97   7 1.99
 103  0.167  0.583  0.626-  68 1.96  56 1.96   8 1.98  53 1.99
 104  0.167  0.583  0.960-   9 1.97  66 1.97  54 1.97  51 1.98
 105  0.167  0.833  0.293-  55 1.96  58 1.96  70 1.97  10 1.99
 106  0.165  0.833  0.627-  56 1.97  59 1.97  11 1.98  71 1.99
 107  0.166  0.833  0.960-  12 1.97  54 1.97  57 1.97  69 1.98
 108  0.417  0.083  0.293-  73 1.96  61 1.96  70 1.97  13 1.99
 109  0.417  0.085  0.627-  74 1.97  62 1.97  14 1.98  71 1.99
 110  0.417  0.084  0.960-  15 1.97  72 1.97  60 1.97  69 1.98
 111  0.416  0.333  0.295-  76 1.92  64 1.97  61 1.98  16 2.01
 112  0.415  0.334  0.626-  77 1.91  17 1.97  65 1.99  62 2.01
 113  0.418  0.334  0.960-  18 1.96  75 1.97  63 1.98  60 1.98
 114  0.416  0.583  0.295-  79 1.92  64 1.97  67 1.98  19 2.01
 115  0.415  0.581  0.626-  80 1.91  20 1.97  65 1.99  68 2.01
 116  0.418  0.584  0.960-  21 1.96  78 1.97  63 1.98  66 1.98
 117  0.417  0.833  0.293-  67 1.96  82 1.96  70 1.97  22 1.99
 118  0.417  0.833  0.627-  68 1.97  83 1.97  23 1.98  71 1.99
 119  0.417  0.833  0.960-  24 1.97  66 1.97  81 1.97  69 1.98
 120  0.667  0.083  0.293-  82 1.96  73 1.96  85 1.97  25 1.99
 121  0.667  0.083  0.626-  83 1.96  74 1.96  26 1.98  86 1.99
 122  0.667  0.083  0.960-  27 1.97  81 1.97  72 1.97  84 1.98
 123  0.667  0.333  0.295-  76 1.92  88 1.97  73 1.98  28 2.01
 124  0.669  0.334  0.626-  77 1.91  29 1.97  89 1.99  74 2.01
 125  0.666  0.334  0.960-  30 1.96  75 1.97  87 1.98  72 1.98
 126  0.667  0.583  0.302-  76 1.97  91 1.97  79 1.97  31 2.10
 127  0.667  0.583  0.962-  32 1.95  75 1.98  90 1.98  78 1.98
 128  0.667  0.834  0.295-  79 1.92  94 1.97  82 1.98  33 2.01
 129  0.669  0.835  0.626-  80 1.91  34 1.97  95 1.99  83 2.01
 130  0.666  0.832  0.960-  35 1.96  78 1.97  93 1.98  81 1.98
 131  0.917  0.083  0.293-  94 1.95  49 1.97  85 1.97  36 1.99
 132  0.916  0.083  0.626-  95 1.95  50 1.98  86 1.98  37 1.98
 133  0.916  0.083  0.960-  93 1.97  38 1.97  48 1.98  84 1.98
 134  0.917  0.333  0.293-  88 1.95  52 1.97  85 1.97  39 1.99
 135  0.916  0.334  0.626-  89 1.95  53 1.98  86 1.98  40 1.98
 136  0.916  0.334  0.960-  87 1.97  41 1.97  51 1.98  84 1.98
 137  0.917  0.583  0.295-  91 1.92  88 1.97  55 1.98  42 2.01
 138  0.916  0.581  0.626-  92 1.91  43 1.97  89 1.99  56 2.01
 139  0.916  0.584  0.960-  44 1.96  90 1.97  87 1.98  54 1.98
 140  0.917  0.834  0.295-  91 1.92  94 1.97  58 1.98  45 2.01
 141  0.916  0.835  0.626-  92 1.91  46 1.97  95 1.99  59 2.01
 142  0.916  0.832  0.960-  47 1.96  90 1.97  93 1.98  57 1.98
 143  0.083  0.167  0.127-   1 1.97  36 1.97   4 1.97  48 1.98
 144  0.084  0.166  0.460-   2 1.96  37 1.97   5 1.97  49 1.99
 145  0.083  0.167  0.793-  50 1.97   3 1.98  38 1.98   6 1.98
 146  0.083  0.417  0.127-   7 1.97  39 1.97   4 1.97  51 1.98
 147  0.084  0.418  0.460-   8 1.96  40 1.97   5 1.97  52 1.99
 148  0.083  0.417  0.793-  53 1.97   9 1.98  41 1.98   6 1.98
 149  0.083  0.667  0.127-  42 1.96  10 1.97   7 1.97  54 1.98
 150  0.084  0.668  0.460-  43 1.92  11 1.98   8 1.98  55 2.00
 151  0.082  0.666  0.793-  56 1.96  44 1.97  12 1.99   9 1.99
 152  0.083  0.917  0.127-  45 1.96  10 1.97   1 1.97  57 1.98
 153  0.084  0.916  0.460-  46 1.92  11 1.98   2 1.98  58 2.00
 154  0.082  0.915  0.793-  59 1.96  47 1.97  12 1.99   3 1.99
 155  0.333  0.167  0.127-  16 1.96  13 1.97   1 1.97  60 1.98
 156  0.334  0.166  0.460-  17 1.92  14 1.98   2 1.98  61 2.00
 157  0.335  0.168  0.793-  62 1.96  18 1.97  15 1.99   3 1.99
 158  0.333  0.417  0.127-  19 1.96  16 1.96   4 1.98  63 1.99
 159  0.334  0.417  0.460-  20 1.94  17 1.94  64 1.99   5 2.00
 160  0.334  0.417  0.794-  65 1.95  21 1.97  18 1.97   6 1.99
 161  0.333  0.667  0.127-  19 1.96  22 1.97   7 1.97  66 1.98
 162  0.334  0.668  0.460-  20 1.92  23 1.98   8 1.98  67 2.00
 163  0.335  0.666  0.793-  68 1.96  21 1.97  24 1.99   9 1.99
 164  0.333  0.917  0.127-  13 1.97  10 1.97  22 1.97  69 1.98
 165  0.333  0.917  0.460-  14 1.96  11 1.96  23 1.96  70 1.99
 166  0.333  0.917  0.793-  71 1.97  15 1.98  12 1.98  24 1.98
 167  0.583  0.167  0.127-  28 1.96  13 1.97  25 1.97  72 1.98
 168  0.582  0.166  0.460-  29 1.92  14 1.98  26 1.98  73 2.00
 169  0.584  0.168  0.793-  74 1.96  30 1.97  15 1.99  27 1.99
 170  0.584  0.417  0.131-  31 1.96  16 1.98  28 1.98  75 2.00
 171  0.584  0.418  0.465- 191 1.90  17 2.07  29 2.07  76 2.17
 172  0.584  0.419  0.792-  77 1.91  32 1.98  18 2.00  30 2.00
 173  0.584  0.666  0.131-  31 1.96  33 1.98  19 1.98  78 2.00
 174  0.584  0.666  0.465- 191 1.90  34 2.07  20 2.07  79 2.17
 175  0.584  0.666  0.792-  80 1.91  32 1.98  35 2.00  21 2.00
 176  0.583  0.917  0.127-  33 1.96  22 1.97  25 1.97  81 1.98
 177  0.582  0.916  0.460-  34 1.92  23 1.98  26 1.98  82 2.00
 178  0.584  0.915  0.793-  83 1.96  35 1.97  24 1.99  27 1.99
 179  0.833  0.167  0.127-  25 1.97  39 1.97  36 1.97  84 1.98
 180  0.832  0.166  0.460-  26 1.96  40 1.97  37 1.97  85 1.99
 181  0.833  0.167  0.793-  86 1.97  27 1.98  41 1.98  38 1.98
 182  0.833  0.417  0.127-  42 1.96  28 1.96  39 1.98  87 1.99
 183  0.833  0.417  0.460-  43 1.94  29 1.94  88 1.99  40 2.00
 184  0.833  0.417  0.794-  89 1.95  44 1.97  30 1.97  41 1.99
 185  0.833  0.666  0.131-  31 1.96  45 1.98  42 1.98  90 2.00
 186  0.832  0.666  0.465- 191 1.90  46 2.07  43 2.07  91 2.17
 187  0.831  0.666  0.792-  92 1.91  32 1.98  47 2.00  44 2.00
 188  0.833  0.917  0.127-  33 1.96  45 1.96  36 1.98  93 1.99
 189  0.833  0.916  0.460-  34 1.94  46 1.94  94 1.99  37 2.00
 190  0.833  0.916  0.794-  95 1.95  35 1.97  47 1.97  38 1.99
 191  0.667  0.583  0.488- 171 1.90 186 1.90 174 1.90  76 3.18  91 3.18  79 3.18
 
  LATTYP: Found a hexagonal cell.
 ALAT       =    12.9943542480
 C/A-ratio  =     1.2014478222
  
  Lattice vectors:
  
 A1 = (  12.9943542480,   0.0000000000,   0.0000000000)
 A2 = (  -6.4971766472,  11.2534400587,   0.0000000000)
 A3 = (   0.0000000000,   0.0000000000,  15.6120386124)


Analysis of symmetry for initial positions (statically):
=====================================================================
 Subroutine PRICEL returns:
 Original cell was already a primitive cell.
 

 Routine SETGRP: Setting up the symmetry group for a 
 hexagonal supercell.


 Subroutine GETGRP returns: Found  6 space group operations
 (whereof  1 operations were pure point group operations)
 out of a pool of 24 trial point group operations.


The static configuration has the point symmetry C_1 .
 The point group associated with its full space group is C_3v.


Analysis of symmetry for dynamics (positions and initial velocities):
=====================================================================
 Subroutine PRICEL returns:
 Original cell was already a primitive cell.
 

 Routine SETGRP: Setting up the symmetry group for a 
 hexagonal supercell.


 Subroutine GETGRP returns: Found  6 space group operations
 (whereof  1 operations were pure point group operations)
 out of a pool of 24 trial point group operations.


The dynamic configuration has the point symmetry C_1 .
 The point group associated with its full space group is C_3v.


Analysis of structural, dynamic, and magnetic symmetry:
=====================================================================
 Subroutine PRICEL returns:
 Original cell was already a primitive cell.
 

 Routine SETGRP: Setting up the symmetry group for a 
 hexagonal supercell.


 Subroutine GETGRP returns: Found  6 space group operations
 (whereof  1 operations were pure point group operations)
 out of a pool of 24 trial point group operations.


The overall configuration has the point symmetry C_1 .
 The point group associated with its full space group is C_3v.


 Subroutine INISYM returns: Found  6 space group operations
 (whereof  1 operations are pure point group operations),
 and found     1 'primitive' translations


----------------------------------------------------------------------------------------

                                     Primitive cell                                     

  volume of cell :    2282.9669

  direct lattice vectors                    reciprocal lattice vectors
    12.994354248  0.000000000  0.000000000     0.076956498  0.044430855  0.000000000
    -6.497176647 11.253440059  0.000000000     0.000000000  0.088861716  0.000000000
     0.000000000  0.000000000 15.612038612     0.000000000  0.000000000  0.064053134

  length of vectors
    12.994354248 12.994353294 15.612038612     0.088861710  0.088861716  0.064053134

  position of ions in fractional coordinates (direct lattice)
     0.166578100  0.083421908  0.165551001
     0.166605813  0.083394195  0.499286727
     0.166474517  0.083525491  0.833767076
     0.165999273  0.332999644  0.165733273
     0.164390952  0.332195483  0.498933960
     0.165868748  0.332934381  0.833861974
     0.166578100  0.583156170  0.165551001
     0.166605813  0.583211595  0.499286727
     0.166474517  0.582949003  0.833767076
     0.167005691  0.833502822  0.165494885
     0.168239448  0.834119701  0.499620550
     0.167150860  0.833575407  0.834044838
     0.416497178  0.082994317  0.165494885
     0.415880299  0.081760560  0.499620550
     0.416424593  0.082849148  0.834044838
     0.414563505  0.332084729  0.165920125
     0.406877317  0.326858820  0.499935175
     0.416387400  0.333595070  0.834878076
     0.414563505  0.582478745  0.165920125
     0.406877317  0.580018466  0.499935175
     0.416387400  0.582792299  0.834878076
     0.416497178  0.833502822  0.165494885
     0.415880299  0.834119701  0.499620550
     0.416424593  0.833575407  0.834044838
     0.666843830  0.083421908  0.165551001
     0.666788405  0.083394195  0.499286727
     0.667050997  0.083525491  0.833767076
     0.667521255  0.332084729  0.165920125
     0.669981534  0.326858820  0.499935175
     0.667207701  0.333595070  0.834878076
     0.666666687  0.583333313  0.167341901
     0.666666687  0.583333313  0.837235456
     0.667521255  0.835436495  0.165920125
     0.669981534  0.843122683  0.499935175
     0.667207701  0.833612600  0.834878076
     0.917000386  0.084000735  0.165733273
     0.917804547  0.085609056  0.498933960
     0.917065649  0.084131260  0.833861974
     0.917000386  0.332999644  0.165733273
     0.917804547  0.332195483  0.498933960
     0.917065649  0.332934381  0.833861974
     0.917915301  0.582478745  0.165920125
     0.923141210  0.580018466  0.499935175
     0.916404960  0.582792299  0.834878076
     0.917915301  0.835436495  0.165920125
     0.923141210  0.843122683  0.499935175
     0.916404960  0.833612600  0.834878076
     0.083293804  0.166706204  0.999905901
     0.083265656  0.166734352  0.332025194
     0.082987357  0.167012651  0.666592245
     0.083293804  0.416587624  0.999905901
     0.083265656  0.416531327  0.332025194
     0.082987357  0.415974728  0.666592245
     0.083369298  0.666651873  0.999806843
     0.085469813  0.667551557  0.331731352
     0.085525391  0.666541571  0.667312698
     0.083369298  0.916717463  0.999806843
     0.085469813  0.917918293  0.331731352
     0.085525391  0.918983859  0.667312698
     0.333282567  0.166630710  0.999806843
     0.332081737  0.164530195  0.331731352
     0.331016171  0.164474617  0.667312698
     0.333323421  0.416661726  0.999859325
     0.330963194  0.415481612  0.332059849
     0.329852360  0.414926195  0.668954628
     0.333282567  0.666651873  0.999806843
     0.332081737  0.667551557  0.331731352
     0.331016171  0.666541571  0.667312698
     0.333333343  0.916666687  0.999879784
     0.333333343  0.916666687  0.331938818
     0.333333343  0.916666687  0.666732145
     0.583348127  0.166630710  0.999806843
     0.582448443  0.164530195  0.331731352
     0.583458429  0.164474617  0.667312698
     0.583142062  0.416284185  0.002350788
     0.580688603  0.411377267  0.326204370
     0.570808057  0.391616174  0.671526521
     0.583142062  0.666857938  0.002350788
     0.580688603  0.669311397  0.326204370
     0.570808057  0.679191943  0.671526521
     0.583348127  0.916717463  0.999806843
     0.582448443  0.917918293  0.331731352
     0.583458429  0.918983859  0.667312698
     0.833412376  0.166706204  0.999905901
     0.833468673  0.166734352  0.332025194
     0.834025272  0.167012651  0.666592245
     0.833338274  0.416661726  0.999859325
     0.834518388  0.415481612  0.332059849
     0.835073805  0.414926195  0.668954628
     0.833715815  0.666857938  0.002350788
     0.838622733  0.669311397  0.326204370
     0.858383826  0.679191943  0.671526521
     0.833338274  0.916676609  0.999859325
     0.834518388  0.919036836  0.332059849
     0.835073805  0.920147670  0.668954628
     0.166580461  0.083419547  0.293189754
     0.166656709  0.083343299  0.626259216
     0.166720335  0.083279673  0.960103395
     0.166520952  0.333260483  0.293342482
     0.167056602  0.333528308  0.625854970
     0.167120026  0.333560020  0.960210839
     0.166580461  0.583160891  0.293189754
     0.166656709  0.583313386  0.626259216
     0.166720335  0.583440638  0.960103395
     0.166585891  0.833292923  0.293172448
     0.165097923  0.832548938  0.626631179
     0.166480394  0.833240174  0.960271479
     0.416707077  0.083414117  0.293172448
     0.417451062  0.084902085  0.626631179
     0.416759826  0.083519614  0.960271479
     0.415908007  0.332984993  0.294569588
     0.415391655  0.333952328  0.626073734
     0.418017102  0.334192453  0.960350898
     0.415908007  0.582922983  0.294569588
     0.415391655  0.581439296  0.626073734
     0.418017102  0.583824619  0.960350898
     0.416707077  0.833292923  0.293172448
     0.417451062  0.832548938  0.626631179
     0.416759826  0.833240174  0.960271479
     0.666839109  0.083419547  0.293189754
     0.666686614  0.083343299  0.626259216
     0.666559362  0.083279673  0.960103395
     0.667077017  0.332984993  0.294569588
     0.668560704  0.333952328  0.626073734
     0.666175381  0.334192453  0.960350898
     0.666666687  0.583333313  0.302080961
     0.666666687  0.583333313  0.962335597
     0.667077017  0.834091993  0.294569588
     0.668560704  0.834608345  0.626073734
     0.666175381  0.831982898  0.960350898
     0.916739547  0.083479056  0.293342482
     0.916471722  0.082943406  0.625854970
     0.916440010  0.082879982  0.960210839
     0.916739547  0.333260483  0.293342482
     0.916471722  0.333528308  0.625854970
     0.916440010  0.333560020  0.960210839
     0.917015037  0.582922983  0.294569588
     0.916047702  0.581439296  0.626073734
     0.915807577  0.583824619  0.960350898
     0.917015037  0.834091993  0.294569588
     0.916047702  0.834608345  0.626073734
     0.915807577  0.831982898  0.960350898
     0.083371563  0.166628445  0.126810227
     0.083783176  0.166216832  0.459669621
     0.083382676  0.166617332  0.793065444
     0.083371563  0.416743141  0.126810227
     0.083783176  0.417566367  0.459669621
     0.083382676  0.416765368  0.793065444
     0.083154475  0.666632291  0.126887272
     0.084102562  0.667609237  0.459565038
     0.081784768  0.666323308  0.793119810
     0.083154475  0.916522222  0.126887272
     0.084102562  0.916493363  0.459565038
     0.081784768  0.915461498  0.793119810
     0.333477808  0.166845533  0.126887272
     0.333506667  0.165897446  0.459565038
     0.334538532  0.168215240  0.793119810
     0.333466567  0.416733299  0.127069545
     0.333579462  0.416789746  0.459734589
     0.334098617  0.417049324  0.793900430
     0.333477808  0.666632291  0.126887272
     0.333506667  0.667609237  0.459565038
     0.334538532  0.666323308  0.793119810
     0.333333343  0.916666687  0.126751210
     0.333333343  0.916666687  0.459579528
     0.333333343  0.916666687  0.792990443
     0.583367709  0.166845533  0.126887272
     0.582390763  0.165897446  0.459565038
     0.583676692  0.168215240  0.793119810
     0.583618538  0.417237138  0.130511947
     0.583915327  0.417830714  0.464829344
     0.584342239  0.418684539  0.792113428
     0.583618538  0.666381462  0.130511947
     0.583915327  0.666084673  0.464829344
     0.584342239  0.665657761  0.792113428
     0.583367709  0.916522222  0.126887272
     0.582390763  0.916493363  0.459565038
     0.583676692  0.915461498  0.793119810
     0.833256859  0.166628445  0.126810227
     0.832433633  0.166216832  0.459669621
     0.833234632  0.166617332  0.793065444
     0.833266701  0.416733299  0.127069545
     0.833210254  0.416789746  0.459734589
     0.832950676  0.417049324  0.793900430
     0.832762862  0.666381462  0.130511947
     0.832169286  0.666084673  0.464829344
     0.831315461  0.665657761  0.792113428
     0.833266701  0.916533463  0.127069545
     0.833210254  0.916420568  0.459734589
     0.832950676  0.915901413  0.793900430
     0.666666687  0.583333313  0.488037838

  ion indices of the primitive-cell ions
   primitive index   ion index
                 1           1
                 2           2
                 3           3
                 4           4
                 5           5
                 6           6
                 7           7
                 8           8
                 9           9
                10          10
                11          11
                12          12
                13          13
                14          14
                15          15
                16          16
                17          17
                18          18
                19          19
                20          20
                21          21
                22          22
                23          23
                24          24
                25          25
                26          26
                27          27
                28          28
                29          29
                30          30
                31          31
                32          32
                33          33
                34          34
                35          35
                36          36
                37          37
                38          38
                39          39
                40          40
                41          41
                42          42
                43          43
                44          44
                45          45
                46          46
                47          47
                48          48
                49          49
                50          50
                51          51
                52          52
                53          53
                54          54
                55          55
                56          56
                57          57
                58          58
                59          59
                60          60
                61          61
                62          62
                63          63
                64          64
                65          65
                66          66
                67          67
                68          68
                69          69
                70          70
                71          71
                72          72
                73          73
                74          74
                75          75
                76          76
                77          77
                78          78
                79          79
                80          80
                81          81
                82          82
                83          83
                84          84
                85          85
                86          86
                87          87
                88          88
                89          89
                90          90
                91          91
                92          92
                93          93
                94          94
                95          95
                96          96
                97          97
                98          98
                99          99
               100         100
               101         101
               102         102
               103         103
               104         104
               105         105
               106         106
               107         107
               108         108
               109         109
               110         110
               111         111
               112         112
               113         113
               114         114
               115         115
               116         116
               117         117
               118         118
               119         119
               120         120
               121         121
               122         122
               123         123
               124         124
               125         125
               126         126
               127         127
               128         128
               129         129
               130         130
               131         131
               132         132
               133         133
               134         134
               135         135
               136         136
               137         137
               138         138
               139         139
               140         140
               141         141
               142         142
               143         143
               144         144
               145         145
               146         146
               147         147
               148         148
               149         149
               150         150
               151         151
               152         152
               153         153
               154         154
               155         155
               156         156
               157         157
               158         158
               159         159
               160         160
               161         161
               162         162
               163         163
               164         164
               165         165
               166         166
               167         167
               168         168
               169         169
               170         170
               171         171
               172         172
               173         173
               174         174
               175         175
               176         176
               177         177
               178         178
               179         179
               180         180
               181         181
               182         182
               183         183
               184         184
               185         185
               186         186
               187         187
               188         188
               189         189
               190         190
               191         191

----------------------------------------------------------------------------------------

 
 
 KPOINTS: pymatgen with grid density = 659 / numbe

Automatic generation of k-mesh.
 Grid dimensions read from file:
 generate k-points for:    1    1    1

 Generating k-lattice:

  Cartesian coordinates                     Fractional coordinates (reciprocal lattice)
     0.076956498  0.044430855  0.000000000     1.000000000  0.000000000  0.000000000
     0.000000000  0.088861716  0.000000000     0.000000000  1.000000000  0.000000000
     0.000000000  0.000000000  0.064053134     0.000000000  0.000000000  1.000000000

  Length of vectors
     0.088861710  0.088861716  0.064053134

  Shift w.r.t. Gamma in fractional coordinates (k-lattice)
     0.000000000  0.000000000  0.000000000

 
 Subroutine IBZKPT returns following result:
 ===========================================
 
 Found      1 irreducible k-points:
 
 Following reciprocal coordinates:
            Coordinates               Weight
  0.000000  0.000000  0.000000      1.000000
 
 Following cartesian coordinates:
            Coordinates               Weight
  0.000000  0.000000  0.000000      1.000000
 
 
 Subroutine IBZKPT_HF returns following result:
 ==============================================
 
 Found      1 k-points in 1st BZ
 the following      1 k-points will be used (e.g. in the exchange kernel)
 Following reciprocal coordinates:   # in IRBZ
  0.000000  0.000000  0.000000    1.00000000   1 t-inv F


--------------------------------------------------------------------------------------------------------




 Dimension of arrays:
   k-points           NKPTS =      1   k-points in BZ     NKDIM =      1   number of bands    NBANDS=   1056
   number of dos      NEDOS =    301   number of ions     NIONS =    191
   non local maximal  LDIM  =      6   non local SUM 2l+1 LMDIM =     18
   total plane-waves  NPLWV = 327680
   max r-space proj   IRMAX =   2305   max aug-charges    IRDMAX=   6476
   dimension x,y,z NGX =    64 NGY =   64 NGZ =   80
   dimension x,y,z NGXF=   128 NGYF=  128 NGZF=  160
   support grid    NGXF=   128 NGYF=  128 NGZF=  160
   ions per type =              95  95   1
   NGX,Y,Z   is equivalent  to a cutoff of   8.19,  8.19,  8.52 a.u.
   NGXF,Y,Z  is equivalent  to a cutoff of  16.38, 16.38, 17.04 a.u.

 SYSTEM =  zno                                     
 POSCAR =    Zn2 O2                                

 Startparameter for this run:
   NWRITE =      2    write-flag & timer
   PREC   = normal    normal or accurate (medium, high low for compatibility)
   ISTART =      1    job   : 0-new  1-cont  2-samecut
   ICHARG =      1    charge: 1-file 2-atom 10-const
   ISPIN  =      2    spin polarized calculation?
   LNONCOLLINEAR =      F non collinear calculations
   LSORBIT =      F    spin-orbit coupling
   INIWAV =      1    electr: 0-lowe 1-rand  2-diag
   LASPH  =      F    aspherical Exc in radial PAW
 Electronic Relaxation 1
   ENCUT  =  400.0 eV  29.40 Ry    5.42 a.u.  21.19 21.19 25.46*2*pi/ulx,y,z
   ENINI  =  400.0     initial cutoff
   ENAUG  =  605.4 eV  augmentation charge cutoff
   NELM   =   1000;   NELMIN=  4; NELMDL=  0     # of ELM steps 
   EDIFF  = 0.1E-05   stopping-criterion for ELM
   LREAL  =      T    real-space projection
   NLSPLINE    = F    spline interpolate recip. space projectors
   LCOMPAT=      F    compatible to vasp.4.4
   GGA_COMPAT  = T    GGA compatible to vasp.4.4-vasp.4.6
   LMAXPAW     = -100 max onsite density
   LMAXMIX     =    2 max onsite mixed and CHGCAR
   VOSKOWN=      0    Vosko Wilk Nusair interpolation
   ROPT   =   -0.00050  -0.00050  -0.00050
 Ionic relaxation
   EDIFFG = 0.1E-01   stopping-criterion for IOM
   NSW    =     30    number of steps for IOM
   NBLOCK =      1;   KBLOCK =     30    inner block; outer block 
   IBRION =      2    ionic relax: 0-MD 1-quasi-New 2-CG
   NFREE  =      1    steps in history (QN), initial steepest desc. (CG)
   ISIF   =      2    stress and relaxation
   IWAVPR =     11    prediction:  0-non 1-charg 2-wave 3-comb
   ISYM   =      3    0-nonsym 1-usesym 2-fastsym
   LCORR  =      T    Harris-Foulkes like correction to forces

   POTIM  = 0.2000    time-step for ionic-motion
   TEIN   =    0.0    initial temperature
   TEBEG  =    0.0;   TEEND  =   0.0 temperature during run
   SMASS  =  -3.00    Nose mass-parameter (am)
   estimated Nose-frequenzy (Omega)   =  0.10E-29 period in steps = 0.31E+47 mass=  -0.386E-26a.u.
   SCALEE = 1.0000    scale energy and forces
   NPACO  =    256;   APACO  = 10.0  distance and # of slots for P.C.
   PSTRESS=    0.0 pullay stress

  Mass of Ions in am
   POMASS =  65.39 16.00 95.94
  Ionic Valenz
   ZVAL   =  12.00  6.00 14.00
  Atomic Wigner-Seitz radii
   RWIGS  =  -1.00 -1.00 -1.00
  virtual crystal weights 
   VCA    =   1.00  1.00  1.00
   NELECT =    1722.0000    total number of electrons
   NUPDOWN=      -1.0000    fix difference up-down

 DOS related values:
   EMIN   =  10.00;   EMAX   =-10.00  energy-range for DOS
   EFERMI =   0.00;   METHOD = LEGACY      
   ISMEAR =    -2;   SIGMA  =   0.01  broadening in eV -4-tet -1-fermi 0-gaus

 Electronic relaxation 2 (details)
   IALGO  =     53    algorithm
   LDIAG  =      T    sub-space diagonalisation (order eigenvalues)
   LSUBROT=      F    optimize rotation matrix (better conditioning)
   TURBO    =      0    0=normal 1=particle mesh
   IRESTART =      0    0=no restart 2=restart with 2 vectors
   NREBOOT  =      0    no. of reboots
   NMIN     =      0    reboot dimension
   EREF     =   0.00    reference energy to select bands
   IMIX   =      4    mixing-type and parameters
     AMIX     =   0.40;   BMIX     =  1.00
     AMIX_MAG =   1.60;   BMIX_MAG =  1.00
     AMIN     =   0.10
     WC   =   100.;   INIMIX=   1;  MIXPRE=   1;  MAXMIX= -45

 Intra band minimization:
   WEIMIN = 0.0010     energy-eigenvalue tresh-hold
   EBREAK =  0.24E-09  absolut break condition
   DEPER  =   0.30     relativ break condition  

   TIME   =   0.30     timestep for ELM

  volume/ion in A,a.u.               =      11.95        80.66
  Fermi-wavevector in a.u.,A,eV,Ry     =   1.490228  2.816122 30.215533  2.220779
  Thomas-Fermi vector in A             =   2.603036
 
 Write flags
   LWAVE        =      T    write WAVECAR
   LDOWNSAMPLE  =      F    k-point downsampling of WAVECAR
   LCHARG       =      T    write CHGCAR
   LVTOT        =      F    write LOCPOT, total local potential
   LVHAR        =      T    write LOCPOT, Hartree potential only
   LELF         =      F    write electronic localiz. function (ELF)
   LORBIT       =     11    0 simple, 1 ext, 2 COOP (PROOUT), +10 PAW based schemes


 Dipole corrections
   LMONO  =      F    monopole corrections only (constant potential shift)
   LDIPOL =      F    correct potential (dipole corrections)
   IDIPOL =      0    1-x, 2-y, 3-z, 4-all directions 
   EPSILON=  1.0000000 bulk dielectric constant

 Exchange correlation treatment:
   GGA     =    PE    GGA type
   LEXCH   =     8    internal setting for exchange type
   LIBXC   =     F    Libxc                    
   VOSKOWN =     0    Vosko Wilk Nusair interpolation
   EXXOEP  =     0    0=HF, 1=EXX-LHF (local Hartree Fock) 2=EXX OEP
   LHFCALC =     T    Hartree Fock is set to
   LSYMGRAD=     F    symmetrize gradient (conserves proper symmetry)
   PRECFOCK=normal    Normal, Fast or Accurate (Low or Medium for compatibility)
   LRHFCALC=     F    long range Hartree Fock
   LRSCOR  =     F    long range correlation only (use DFT for short range part)
   LTHOMAS =     F    Thomas Fermi screening in HF
   LMODELHF=     F    short range full HF, long range fraction AEXX
   FOCKCORR=     1    mode to apply convergence corrections
   LFOCKACE=     T    use Adeptively-Compressed-Exchange operator
   ENCUT4O =  -1.0   cutoff for four orbital integrals eV
   LMAXFOCK=     4    L truncation for augmentation on plane wave grid
   LMAXFOCKAE=  -1    L truncation for all-electron charge restoration on plane wave grid
   NMAXFOCKAE=   1    number of basis functions for all-electron charge restoration
   LFOCKAEDFT=     F  apply the AE augmentation even for DFT
   NKREDX  =     1    reduce k-point grid by
   NKREDY  =     1    reduce k-point grid by
   NKREDZ  =     1    reduce k-point grid by
   SHIFTRED=     F    shift reduced grid of Gamma
   HFKIDENT=     F    idential grid for each k-point
   ODDONLY =     F    use only odd q-grid points
   EVENONLY=     F    use only even q-grid points
   HFALPHA =   -1.0000 decay constant for conv. correction
   MCALPHA =    0.0000 extent of test-charge in conv. correction in multipole expansion
   AEXX    =    0.3750 exact exchange contribution
   HFSCREEN=    0.2000 screening length (either q_TF or 0.3 A-1)
   HFSCREENC=   0.2000 screening length for correlation (either q_TF or 0.3 A-1)
   HFRCUT  =    0.0000 spherical cutoff for potential kernel
   ALDAX   =    0.6250 LDA exchange part
   AGGAX   =    0.6250 GGA exchange part
   ALDAC   =    1.0000 LDA correlation
   AGGAC   =    1.0000 GGA correlation
   ENCUTFOCK=  -1.0 apply spherical cutoff to Coloumb kernel
   NBANDSGWLOW=     1    first orbital included in HF term
   NBLOCK_FOCK=    64    blocking factor in FOCK_ACC

 Linear response parameters
   LEPSILON=     F    determine dielectric tensor
   LRPA    =     F    only Hartree local field effects (RPA)
   LNABLA  =     F    use nabla operator in PAW spheres
   LVEL    =     F    velocity operator in full k-point grid
   CSHIFT  =0.1000    complex shift for real part using Kramers Kronig
   OMEGAMAX=  -1.0    maximum frequency
   DEG_THRESHOLD= 0.2000000E-02 threshold for treating states as degnerate
   RTIME   =   -0.100 relaxation time in fs
  (WPLASMAI=    0.000 imaginary part of plasma frequency in eV, 0.658/RTIME)
   DFIELD  = 0.0000000 0.0000000 0.0000000 field for delta impulse in time
 
  Optional k-point grid parameters
   LKPOINTS_OPT  =     F    use optional k-point grid
   KPOINTS_OPT_MODE=     1    mode for optional k-point grid
 
 Orbital magnetization related:
   ORBITALMAG=     F  switch on orbital magnetization
   LCHIMAG   =     F  perturbation theory with respect to B field
   DQ        =  0.001000  dq finite difference perturbation B field
   LLRAUG    =     F  two centre corrections for induced B field
   LBONE     =     F  B-component reconstruction in AE one-centre
   LVGVCALC  =     T  calculate vGv susceptibility
   LVGVAPPL  =     F  apply vGv susceptibility instead of pGv for G=0

 Random number generation:
   RANDOM_GENERATOR = DEFAULT
   PCG_SEED         = not used


--------------------------------------------------------------------------------------------------------


 conjugate gradient relaxation of ions
 charge density and potential will be updated during run
 spin polarized calculation
 Conjugate gradient for all bands (Freysoldt, et al. PRB 79, 241103 (2009))
 perform sub-space diagonalisation
    before iterative eigenvector-optimisation
 modified Broyden-mixing scheme, WC =      100.0
 initial mixing is a Kerker type mixing with AMIX =  0.4000 and BMIX =      1.0000
 Hartree-type preconditioning will be used
 using additional bands          195
 real space projection scheme for non local part
 use partial core corrections
 no Harris-corrections to forces 
 use gradient corrections 
 use of overlap-Matrix (Vanderbilt PP)
 partial occupancies read from INCAR or WAVECAR (fixed during run)


--------------------------------------------------------------------------------------------------------


  energy-cutoff  :      400.00
  volume of cell :     2282.97
      direct lattice vectors                 reciprocal lattice vectors
    12.994354248  0.000000000  0.000000000     0.076956498  0.044430855  0.000000000
    -6.497176647 11.253440059  0.000000000     0.000000000  0.088861716  0.000000000
     0.000000000  0.000000000 15.612038612     0.000000000  0.000000000  0.064053134

  length of vectors
    12.994354248 12.994353294 15.612038612     0.088861710  0.088861716  0.064053134


 
 old parameters found on file WAVECAR:
  energy-cutoff  :      400.00
  volume of cell :     2282.97
      direct lattice vectors                 reciprocal lattice vectors
    12.994354248  0.000000000  0.000000000     0.076956498  0.044430855  0.000000000
    -6.497176647 11.253440059  0.000000000     0.000000000  0.088861716  0.000000000
     0.000000000  0.000000000 15.612038612     0.000000000  0.000000000  0.064053134

  length of vectors

 
 k-points in units of 2pi/SCALE and weight: pymatgen with grid density = 659 / numbe
   0.00000000  0.00000000  0.00000000       1.000
 
 k-points in reciprocal lattice and weights: pymatgen with grid density = 659 / numbe
   0.00000000  0.00000000  0.00000000       1.000
 
 position of ions in fractional coordinates (direct lattice) 
   0.16657810  0.08342191  0.16555100
   0.16660581  0.08339419  0.49928673
   0.16647452  0.08352549  0.83376708
   0.16599927  0.33299964  0.16573327
   0.16439095  0.33219548  0.49893396
   0.16586875  0.33293438  0.83386197
   0.16657810  0.58315617  0.16555100
   0.16660581  0.58321160  0.49928673
   0.16647452  0.58294900  0.83376708
   0.16700569  0.83350282  0.16549489
   0.16823945  0.83411970  0.49962055
   0.16715086  0.83357541  0.83404484
   0.41649718  0.08299432  0.16549489
   0.41588030  0.08176056  0.49962055
   0.41642459  0.08284915  0.83404484
   0.41456350  0.33208473  0.16592012
   0.40687732  0.32685882  0.49993517
   0.41638740  0.33359507  0.83487808
   0.41456350  0.58247875  0.16592012
   0.40687732  0.58001847  0.49993517
   0.41638740  0.58279230  0.83487808
   0.41649718  0.83350282  0.16549489
   0.41588030  0.83411970  0.49962055
   0.41642459  0.83357541  0.83404484
   0.66684383  0.08342191  0.16555100
   0.66678840  0.08339419  0.49928673
   0.66705100  0.08352549  0.83376708
   0.66752125  0.33208473  0.16592012
   0.66998153  0.32685882  0.49993517
   0.66720770  0.33359507  0.83487808
   0.66666669  0.58333331  0.16734190
   0.66666669  0.58333331  0.83723546
   0.66752125  0.83543650  0.16592012
   0.66998153  0.84312268  0.49993517
   0.66720770  0.83361260  0.83487808
   0.91700039  0.08400073  0.16573327
   0.91780455  0.08560906  0.49893396
   0.91706565  0.08413126  0.83386197
   0.91700039  0.33299964  0.16573327
   0.91780455  0.33219548  0.49893396
   0.91706565  0.33293438  0.83386197
   0.91791530  0.58247875  0.16592012
   0.92314121  0.58001847  0.49993517
   0.91640496  0.58279230  0.83487808
   0.91791530  0.83543650  0.16592012
   0.92314121  0.84312268  0.49993517
   0.91640496  0.83361260  0.83487808
   0.08329380  0.16670620  0.99990590
   0.08326566  0.16673435  0.33202519
   0.08298736  0.16701265  0.66659225
   0.08329380  0.41658762  0.99990590
   0.08326566  0.41653133  0.33202519
   0.08298736  0.41597473  0.66659225
   0.08336930  0.66665187  0.99980684
   0.08546981  0.66755156  0.33173135
   0.08552539  0.66654157  0.66731270
   0.08336930  0.91671746  0.99980684
   0.08546981  0.91791829  0.33173135
   0.08552539  0.91898386  0.66731270
   0.33328257  0.16663071  0.99980684
   0.33208174  0.16453020  0.33173135
   0.33101617  0.16447462  0.66731270
   0.33332342  0.41666173  0.99985932
   0.33096319  0.41548161  0.33205985
   0.32985236  0.41492620  0.66895463
   0.33328257  0.66665187  0.99980684
   0.33208174  0.66755156  0.33173135
   0.33101617  0.66654157  0.66731270
   0.33333334  0.91666669  0.99987978
   0.33333334  0.91666669  0.33193882
   0.33333334  0.91666669  0.66673214
   0.58334813  0.16663071  0.99980684
   0.58244844  0.16453020  0.33173135
   0.58345843  0.16447462  0.66731270
   0.58314206  0.41628418  0.00235079
   0.58068860  0.41137727  0.32620437
   0.57080806  0.39161617  0.67152652
   0.58314206  0.66685794  0.00235079
   0.58068860  0.66931140  0.32620437
   0.57080806  0.67919194  0.67152652
   0.58334813  0.91671746  0.99980684
   0.58244844  0.91791829  0.33173135
   0.58345843  0.91898386  0.66731270
   0.83341238  0.16670620  0.99990590
   0.83346867  0.16673435  0.33202519
   0.83402527  0.16701265  0.66659225
   0.83333827  0.41666173  0.99985932
   0.83451839  0.41548161  0.33205985
   0.83507380  0.41492620  0.66895463
   0.83371582  0.66685794  0.00235079
   0.83862273  0.66931140  0.32620437
   0.85838383  0.67919194  0.67152652
   0.83333827  0.91667661  0.99985932
   0.83451839  0.91903684  0.33205985
   0.83507380  0.92014767  0.66895463
   0.16658046  0.08341955  0.29318975
   0.16665671  0.08334330  0.62625922
   0.16672033  0.08327967  0.96010340
   0.16652095  0.33326048  0.29334248
   0.16705660  0.33352831  0.62585497
   0.16712003  0.33356002  0.96021084
   0.16658046  0.58316089  0.29318975
   0.16665671  0.58331339  0.62625922
   0.16672033  0.58344064  0.96010340
   0.16658589  0.83329292  0.29317245
   0.16509792  0.83254894  0.62663118
   0.16648039  0.83324017  0.96027148
   0.41670708  0.08341412  0.29317245
   0.41745106  0.08490209  0.62663118
   0.41675983  0.08351961  0.96027148
   0.41590801  0.33298499  0.29456959
   0.41539166  0.33395233  0.62607373
   0.41801710  0.33419245  0.96035090
   0.41590801  0.58292298  0.29456959
   0.41539166  0.58143930  0.62607373
   0.41801710  0.58382462  0.96035090
   0.41670708  0.83329292  0.29317245
   0.41745106  0.83254894  0.62663118
   0.41675983  0.83324017  0.96027148
   0.66683911  0.08341955  0.29318975
   0.66668661  0.08334330  0.62625922
   0.66655936  0.08327967  0.96010340
   0.66707702  0.33298499  0.29456959
   0.66856070  0.33395233  0.62607373
   0.66617538  0.33419245  0.96035090
   0.66666669  0.58333331  0.30208096
   0.66666669  0.58333331  0.96233560
   0.66707702  0.83409199  0.29456959
   0.66856070  0.83460834  0.62607373
   0.66617538  0.83198290  0.96035090
   0.91673955  0.08347906  0.29334248
   0.91647172  0.08294341  0.62585497
   0.91644001  0.08287998  0.96021084
   0.91673955  0.33326048  0.29334248
   0.91647172  0.33352831  0.62585497
   0.91644001  0.33356002  0.96021084
   0.91701504  0.58292298  0.29456959
   0.91604770  0.58143930  0.62607373
   0.91580758  0.58382462  0.96035090
   0.91701504  0.83409199  0.29456959
   0.91604770  0.83460834  0.62607373
   0.91580758  0.83198290  0.96035090
   0.08337156  0.16662844  0.12681023
   0.08378318  0.16621683  0.45966962
   0.08338268  0.16661733  0.79306544
   0.08337156  0.41674314  0.12681023
   0.08378318  0.41756637  0.45966962
   0.08338268  0.41676537  0.79306544
   0.08315448  0.66663229  0.12688727
   0.08410256  0.66760924  0.45956504
   0.08178477  0.66632331  0.79311981
   0.08315448  0.91652222  0.12688727
   0.08410256  0.91649336  0.45956504
   0.08178477  0.91546150  0.79311981
   0.33347781  0.16684553  0.12688727
   0.33350667  0.16589745  0.45956504
   0.33453853  0.16821524  0.79311981
   0.33346657  0.41673330  0.12706954
   0.33357946  0.41678975  0.45973459
   0.33409862  0.41704932  0.79390043
   0.33347781  0.66663229  0.12688727
   0.33350667  0.66760924  0.45956504
   0.33453853  0.66632331  0.79311981
   0.33333334  0.91666669  0.12675121
   0.33333334  0.91666669  0.45957953
   0.33333334  0.91666669  0.79299044
   0.58336771  0.16684553  0.12688727
   0.58239076  0.16589745  0.45956504
   0.58367669  0.16821524  0.79311981
   0.58361854  0.41723714  0.13051195
   0.58391533  0.41783071  0.46482934
   0.58434224  0.41868454  0.79211343
   0.58361854  0.66638146  0.13051195
   0.58391533  0.66608467  0.46482934
   0.58434224  0.66565776  0.79211343
   0.58336771  0.91652222  0.12688727
   0.58239076  0.91649336  0.45956504
   0.58367669  0.91546150  0.79311981
   0.83325686  0.16662844  0.12681023
   0.83243363  0.16621683  0.45966962
   0.83323463  0.16661733  0.79306544
   0.83326670  0.41673330  0.12706954
   0.83321025  0.41678975  0.45973459
   0.83295068  0.41704932  0.79390043
   0.83276286  0.66638146  0.13051195
   0.83216929  0.66608467  0.46482934
   0.83131546  0.66565776  0.79211343
   0.83326670  0.91653346  0.12706954
   0.83321025  0.91642057  0.45973459
   0.83295068  0.91590141  0.79390043
   0.66666669  0.58333331  0.48803784
 
 position of ions in cartesian coordinates  (Angst):
   1.62256798  0.93878344  2.58458863
   1.62310814  0.93847157  7.79488367
   1.62054898  0.93994911 13.01680379
  -0.00650415  3.74739153  2.58743426
  -0.02217847  3.73834196  7.78937625
  -0.00777621  3.74665710 13.01828533
  -1.62429380  6.56251300  2.58458863
  -1.62429380  6.56313673  7.79488367
  -1.62429380  6.56018166 13.01680379
  -3.24528396  9.37977405  2.58371254
  -3.23326005  9.38671606  7.80009532
  -3.24386918  9.38059088 13.02114021
   4.87288313  0.93397157  2.58371254
   4.87288313  0.92008756  7.80009532
   4.87288313  0.93233792 13.02114021
   3.22937189  3.73709559  2.59035139
   3.16344850  3.67828614  7.80500725
   3.24325928  3.75409212 13.03414876
   1.60251774  6.55488964  2.59035139
   1.51862556  6.52720304  7.80500725
   1.62418087  6.55841821 13.03414876
  -0.00330320  9.37977405  2.58371254
  -0.01532712  9.38671606  7.80009532
  -0.00471799  9.38059088 13.02114021
   8.12319809  0.93878344  2.58458863
   8.12265793  0.93847157  7.79488367
   8.12521709  0.93994911 13.01680379
   6.51639451  3.73709559  2.59035139
   6.58231790  3.67828614  7.80500725
   6.50250712  3.75409212 13.03414876
   4.87288352  6.56450647  2.61254822
   4.87288352  6.56450647 13.07095226
   3.24602917  9.40153452  2.59035139
   3.22806038  9.48803058  7.80500725
   3.25380491  9.38100942 13.03414876
  11.37006025  0.94529723  2.58743426
  11.37006025  0.96339638  7.78937625
  11.37006025  0.94676609 13.01828533
   9.75227036  3.74739153  2.58743426
   9.76794468  3.73834196  7.78937625
   9.75354242  3.74665710 13.01828533
   8.14324930  6.55488964  2.59035139
   8.22714147  6.52720304  7.80500725
   8.12158617  6.55841821 13.03414876
   6.49973811  9.40153452  2.59035139
   6.51770690  9.48803058  7.80500725
   6.49196237  9.38100942 13.03414876
  -0.00077045  1.87601827 15.61056953
  -0.00131911  1.87633504  5.18359016
  -0.00674359  1.87946686 10.40686387
  -1.62429418  4.68804385 15.61056953
  -1.62429418  4.68741032  5.18359016
  -1.62429418  4.68114667 10.40686387
  -3.24802480  7.50212689 15.60902305
  -3.22657537  7.51225144  5.17900267
  -3.21929109  7.50088561 10.41811160
  -4.87274510 10.31622502 15.60902305
  -4.85325228 10.32973849  5.17900267
  -4.85945323 10.34172977 10.41811160
   3.24816259  1.87516871 15.60902305
   3.24620598  1.85153069  5.17900267
   3.23272075  1.85090524 10.41811160
   1.62419778  4.68887776 15.60984238
   1.60119555  4.67559742  5.18413119
   1.59036963  4.66934707 10.44374548
  -0.00056323  7.50212689 15.60902305
  -0.02201266  7.51225144  5.17900267
  -0.02929694  7.50088561 10.41811160
  -1.62429385 10.31565362 15.61016180
  -1.62429385 10.31565362  5.18224164
  -1.62429385 10.31565362 10.40904799
   6.49760305  1.87516871 15.60902305
   6.49955965  1.85153069  5.17900267
   6.51304488  1.85090524 10.41811160
   4.87288265  4.68462912  0.03670059
   4.87288264  4.62940942  5.09271521
   4.87288263  4.40702914 10.48389798
   3.24486071  7.50444583  0.03670059
   3.19703904  7.53205568  5.09271521
   3.00445206  7.64324582 10.48389798
   1.62415692 10.31622502 15.60902305
   1.60466409 10.32973849  5.17900267
   1.61086505 10.34172977 10.41811160
   9.74653600  1.87601827 15.61056953
   9.74708465  1.87633504  5.18359016
   9.75250913  1.87946686 10.40686387
   8.12156790  4.68887776 15.60984238
   8.14457013  4.67559742  5.18413119
   8.15539605  4.66934707 10.44374548
   6.50090482  7.50444583  0.03670059
   6.54872649  7.53205568  5.09271521
   6.74131348  7.64324582 10.48389798
   4.87288288 10.31576527 15.60984238
   4.87288288 10.34232595  5.18413119
   4.87288289 10.35482665 10.44374548
   1.62261399  0.93875687  4.57728977
   1.62410017  0.93789882  9.77718306
   1.62534034  0.93718281 14.98917128
  -0.00141999  3.75032687  4.57967416
   0.00380033  3.75334082  9.77087196
   0.00441845  3.75369769 14.99084869
  -1.62429380  6.56256613  4.57728977
  -1.62429380  6.56428223  9.77718306
  -1.62429380  6.56571425 14.98917128
  -3.24937523  9.37741196  4.57701958
  -3.26387663  9.36903957  9.78299016
  -3.25040338  9.37681835 14.99179540
   4.87288313  0.93869576  4.57701958
   4.87288313  0.95544053  9.78299016
   4.87288313  0.93988297 14.99179540
   3.24099366  3.74722666  4.59883178
   3.22799905  3.75811251  9.77428731
   3.26055491  3.76081473 14.99303530
   1.61710239  6.55988885  4.59883178
   1.62003250  6.54319226  9.77428731
   1.63865063  6.57003535 14.99303530
   0.00078807  9.37741196  4.57701958
   0.01528945  9.36903957  9.78299016
   0.00181621  9.37681835 14.99179540
   8.12315208  0.93875687  4.57728977
   8.12166589  0.93789882  9.77718306
   8.12042572  0.93718281 14.98917128
   6.50477275  3.74722666  4.59883178
   6.51776736  3.75811251  9.77428731
   6.48521150  3.76081473 14.99303530
   4.87288352  6.56450647  4.71609963
   4.87288352  6.56450647 15.02402050
   3.24899205  9.38640424  4.59883178
   3.26491678  9.39221498  9.77428731
   3.25097904  9.36266967 14.99303530
  11.37006025  0.93942655  4.57967416
  11.37006025  0.93339865  9.77087196
  11.37006025  0.93268491 14.99084869
   9.74718620  3.75032687  4.57967416
   9.74196588  3.75334082  9.77087196
   9.74134777  3.75369769 14.99084869
   8.12866465  6.55988885  4.59883178
   8.12573453  6.54319226  9.77428731
   8.10711641  6.57003535 14.99303530
   6.49677522  9.38640424  4.59883178
   6.48085050  9.39221498  9.77428731
   6.49478823  9.36266967 14.99303530
   0.00074518  1.87514322  1.97976615
   0.00876815  1.87051115  7.17637987
   0.00096180  1.87501816 12.38136834
  -1.62429418  4.68979396  1.97976615
  -1.62429418  4.69905809  7.17637987
  -1.62429418  4.69004408 12.38136834
  -3.25068904  7.50190653  1.98096899
  -3.24471666  7.51290054  7.17474712
  -3.26647999  7.49842941 12.38221710
  -4.87426807 10.31402789  1.98096899
  -4.86176079 10.31370312  7.17474712
  -4.88517482 10.30209110 12.38221710
   3.24930387  1.87758620  1.98096899
   3.25583877  1.86691696  7.17474712
   3.25418807  1.89300012 12.38221710
   1.62559284  4.68968320  1.98381464
   1.62669309  4.69031843  7.17739416
   1.63175265  4.69323957 12.39440417
   0.00210101  7.50190653  1.98096899
  -0.00387137  7.51290054  7.17474712
   0.01789196  7.49842941 12.38221710
  -1.62429385 10.31565362  1.97884479
  -1.62429385 10.31565362  7.17497333
  -1.62429385 10.31565362 12.38019741
   6.49646177  1.87758620  1.98096899
   6.48992687  1.86691696  7.17474712
   6.49157757  1.89300012 12.38221710
   4.87288265  4.69535312  2.03755756
   4.87288265  4.70203290  7.25693367
   4.87288265  4.71164136 12.36650542
   3.25414796  7.49908383  2.03755756
   3.25993282  7.49574395  7.25693367
   3.26825399  7.49093971 12.36650542
   1.62567989 10.31402789  1.98096899
   1.61317261 10.31370312  7.17474712
   1.63658663 10.30209110 12.38221710
   9.74502036  1.87514322  1.97976615
   9.73699739  1.87051115  7.17637987
   9.74480375  1.87501816 12.38136834
   8.12017284  4.68968320  1.98381464
   8.11907259  4.69031843  7.17739416
   8.11401303  4.69323957 12.39440417
   6.49161757  7.49908383  2.03755756
   6.48583271  7.49574395  7.25693367
   6.47751153  7.49093971 12.36650542
   4.87288288 10.31415439  1.98381464
   4.87288288 10.31288393  7.17739416
   4.87288288 10.30704165 12.39440417
   4.87288352  6.56450647  7.61926557
 


--------------------------------------------------------------------------------------------------------


 use parallel FFT for orbitals z direction half grid
 k-point   1 :   0.0000 0.0000 0.0000  plane waves:   20744

 maximum and minimum number of plane-waves per node :      2599     2585

 maximum number of plane-waves:     20744
 maximum index in each direction: 
   IXMAX=   21   IYMAX=   21   IZMAX=   25
   IXMIN=  -21   IYMIN=  -21   IZMIN=    0


 real space projection operators:
  total allocation   :      30000.14 KBytes
  max/ min on nodes  :       4073.67       3460.34


 parallel 3D FFT for wavefunctions:
    minimum data exchange during FFTs selected (reduces bandwidth)
 parallel 3D FFT for charge:
    minimum data exchange during FFTs selected (reduces bandwidth)

 
 Radii for the augmentation spheres in the non-local exchange
 for species   1 augmentation radius   1.190 (default was   0.952)
       energy cutoff for augmentation   1600.0
 for species   2 augmentation radius   0.902 (default was   0.722)
       energy cutoff for augmentation   1600.0
 for species   3 augmentation radius   1.352 (default was   1.082)
       energy cutoff for augmentation   1600.0

 real space projection operators:
  total allocation   :      22029.56 KBytes
  max/ min on nodes  :       2909.34       2504.73

[...]
      8.11598      4.69211      7.17938        -0.004313      0.002490     -0.000178
      8.11546      4.69240     12.39634         0.006201     -0.003580      0.000199
      6.49212      7.49937      2.03731         0.004312      0.002490      0.005491
      6.48483      7.49516      7.24713        -0.029662     -0.017125     -0.053128
      6.47842      7.49146     12.36468         0.024213      0.013980      0.036103
      4.87288     10.31537      1.98486         0.000000      0.017169      0.016746
      4.87288     10.30931      7.17938        -0.000000     -0.004981     -0.000178
      4.87288     10.30871     12.39634         0.000000      0.007160      0.000199
      4.87288      6.56451      7.61094         0.000000      0.000000     -0.108389
 -----------------------------------------------------------------------------------
    total drift:                                0.001171     -0.000891      0.109360


--------------------------------------------------------------------------------------------------------



  FREE ENERGIE OF THE ION-ELECTRON SYSTEM (eV)
  ---------------------------------------------------
  free  energy   TOTEN  =     -1222.13699719 eV

  energy  without entropy=    -1222.13699719  energy(sigma->0) =    -1222.13699719
 
 d Force = 0.9640618E-03[ 0.402E-03, 0.153E-02]  d Energy = 0.8910584E-03 0.730E-04
 d Force =-0.1498042E+01[-0.151E+01,-0.148E+01]  d Ewald  =-0.1498043E+01 0.110E-05


--------------------------------------------------------------------------------------------------------


    POTLOK:  cpu time      0.8134: real time      0.8217


--------------------------------------------------------------------------------------------------------




--------------------------------------------------------------------------------------------------------


  
 reached required accuracy - stopping structural energy minimisation
 writing wavefunctions
     LOOP+:  cpu time   3398.4086: real time   3486.3759
    4ORBIT:  cpu time      0.0000: real time      0.0000



 total charge

# of ion       s       p       d       tot
------------------------------------------
    1        0.411   0.478   9.951  10.840
    2        0.412   0.480   9.951  10.843
    3        0.408   0.471   9.948  10.827
    4        0.410   0.478   9.951  10.839
    5        0.410   0.476   9.949  10.835
    6        0.409   0.474   9.949  10.832
    7        0.411   0.478   9.951  10.840
    8        0.412   0.480   9.951  10.843
    9        0.408   0.471   9.948  10.827
   10        0.410   0.478   9.951  10.839
   11        0.411   0.480   9.952  10.844
   12        0.409   0.474   9.949  10.831
   13        0.410   0.478   9.951  10.839
   14        0.411   0.480   9.952  10.844
   15        0.409   0.474   9.949  10.831
   16        0.411   0.478   9.951  10.839
   17        0.415   0.480   9.950  10.845
   18        0.409   0.475   9.949  10.834
   19        0.411   0.478   9.951  10.839
   20        0.415   0.480   9.950  10.845
   21        0.409   0.475   9.949  10.834
   22        0.410   0.478   9.951  10.839
   23        0.411   0.480   9.952  10.844
   24        0.409   0.474   9.949  10.831
   25        0.411   0.478   9.951  10.840
   26        0.412   0.480   9.951  10.843
   27        0.408   0.471   9.948  10.827
   28        0.411   0.478   9.951  10.839
   29        0.415   0.480   9.950  10.845
   30        0.409   0.475   9.949  10.834
   31        0.408   0.466   9.944  10.819
   32        0.406   0.473   9.950  10.830
   33        0.411   0.478   9.951  10.839
   34        0.415   0.480   9.950  10.845
   35        0.409   0.475   9.949  10.834
   36        0.410   0.478   9.951  10.839
   37        0.410   0.476   9.949  10.835
   38        0.409   0.474   9.949  10.832
   39        0.410   0.478   9.951  10.839
   40        0.410   0.476   9.949  10.835
   41        0.409   0.474   9.949  10.832
   42        0.411   0.478   9.951  10.839
   43        0.415   0.480   9.950  10.845
   44        0.409   0.475   9.949  10.834
   45        0.411   0.478   9.951  10.839
   46        0.415   0.480   9.950  10.845
   47        0.409   0.475   9.949  10.834
   48        0.409   0.475   9.950  10.835
   49        0.411   0.479   9.952  10.842
   50        0.409   0.477   9.950  10.836
   51        0.409   0.475   9.950  10.835
   52        0.411   0.479   9.952  10.842
   53        0.409   0.477   9.950  10.836
   54        0.409   0.475   9.950  10.834
   55        0.411   0.480   9.952  10.844
   56        0.412   0.479   9.949  10.840
   57        0.409   0.475   9.950  10.834
   58        0.411   0.480   9.952  10.844
   59        0.412   0.479   9.949  10.840
   60        0.409   0.475   9.950  10.834
   61        0.411   0.480   9.952  10.844
   62        0.412   0.479   9.949  10.840
   63        0.409   0.476   9.950  10.835
   64        0.412   0.482   9.953  10.846
   65        0.409   0.478   9.952  10.839
   66        0.409   0.475   9.950  10.834
   67        0.411   0.480   9.952  10.844
   68        0.412   0.479   9.949  10.840
   69        0.409   0.475   9.950  10.834
   70        0.410   0.477   9.951  10.838
   71        0.407   0.469   9.946  10.822
   72        0.409   0.475   9.950  10.834
   73        0.411   0.480   9.952  10.844
   74        0.412   0.479   9.949  10.840
   75        0.408   0.473   9.948  10.830
   76        0.419   0.474   9.947  10.841
   77        0.455   0.483   9.929  10.867
   78        0.408   0.473   9.948  10.830
   79        0.419   0.474   9.947  10.841
   80        0.455   0.483   9.929  10.867
   81        0.409   0.475   9.950  10.834
   82        0.411   0.480   9.952  10.844
   83        0.412   0.479   9.949  10.840
   84        0.409   0.475   9.950  10.835
   85        0.411   0.479   9.952  10.842
   86        0.409   0.477   9.950  10.836
   87        0.409   0.476   9.950  10.835
   88        0.412   0.482   9.953  10.846
   89        0.409   0.478   9.952  10.839
   90        0.408   0.473   9.948  10.830
   91        0.419   0.474   9.947  10.841
   92        0.455   0.483   9.929  10.867
   93        0.409   0.476   9.950  10.835
   94        0.412   0.482   9.953  10.846
   95        0.409   0.478   9.952  10.839
   96        1.575   3.532   0.000   5.107
   97        1.574   3.531   0.000   5.105
   98        1.575   3.528   0.000   5.102
   99        1.575   3.532   0.000   5.107
  100        1.574   3.530   0.000   5.104
  101        1.575   3.528   0.000   5.103
  102        1.575   3.532   0.000   5.107
  103        1.574   3.531   0.000   5.105
  104        1.575   3.528   0.000   5.102
  105        1.575   3.531   0.000   5.106
  106        1.575   3.524   0.000   5.099
  107        1.575   3.528   0.000   5.103
  108        1.575   3.531   0.000   5.106
  109        1.575   3.524   0.000   5.099
  110        1.575   3.528   0.000   5.103
  111        1.575   3.532   0.000   5.107
  112        1.575   3.529   0.000   5.105
  113        1.574   3.529   0.000   5.103
  114        1.575   3.532   0.000   5.107
  115        1.575   3.529   0.000   5.105
  116        1.574   3.529   0.000   5.103
  117        1.575   3.531   0.000   5.106
  118        1.575   3.524   0.000   5.099
  119        1.575   3.528   0.000   5.103
  120        1.575   3.532   0.000   5.107
  121        1.574   3.531   0.000   5.105
  122        1.575   3.528   0.000   5.102
  123        1.575   3.532   0.000   5.107
  124        1.575   3.529   0.000   5.105
  125        1.574   3.529   0.000   5.103
  126        1.576   3.513   0.000   5.089
  127        1.574   3.526   0.000   5.101
  128        1.575   3.532   0.000   5.107
  129        1.575   3.529   0.000   5.105
  130        1.574   3.529   0.000   5.103
  131        1.575   3.532   0.000   5.107
  132        1.574   3.530   0.000   5.104
  133        1.575   3.528   0.000   5.103
  134        1.575   3.532   0.000   5.107
  135        1.574   3.530   0.000   5.104
  136        1.575   3.528   0.000   5.103
  137        1.575   3.532   0.000   5.107
  138        1.575   3.529   0.000   5.105
  139        1.574   3.529   0.000   5.103
  140        1.575   3.532   0.000   5.107
  141        1.575   3.529   0.000   5.105
  142        1.574   3.529   0.000   5.103
  143        1.575   3.530   0.000   5.105
  144        1.575   3.529   0.000   5.104
  145        1.575   3.527   0.000   5.101
  146        1.575   3.530   0.000   5.105
  147        1.575   3.529   0.000   5.104
  148        1.575   3.527   0.000   5.101
  149        1.575   3.530   0.000   5.105
  150        1.575   3.533   0.000   5.108
  151        1.575   3.525   0.000   5.100
  152        1.575   3.530   0.000   5.105
  153        1.575   3.533   0.000   5.108
  154        1.575   3.525   0.000   5.100
  155        1.575   3.530   0.000   5.105
  156        1.575   3.533   0.000   5.108
  157        1.575   3.525   0.000   5.100
  158        1.575   3.530   0.000   5.105
  159        1.575   3.531   0.000   5.106
  160        1.574   3.530   0.000   5.104
  161        1.575   3.530   0.000   5.105
  162        1.575   3.533   0.000   5.108
  163        1.575   3.525   0.000   5.100
  164        1.575   3.531   0.000   5.105
  165        1.575   3.531   0.000   5.106
  166        1.575   3.526   0.000   5.101
  167        1.575   3.530   0.000   5.105
  168        1.575   3.533   0.000   5.108
  169        1.575   3.525   0.000   5.100
  170        1.575   3.525   0.000   5.100
  171        1.591   3.525   0.000   5.116
  172        1.575   3.524   0.000   5.099
  173        1.575   3.525   0.000   5.100
  174        1.591   3.525   0.000   5.116
  175        1.575   3.524   0.000   5.099
  176        1.575   3.530   0.000   5.105
  177        1.575   3.533   0.000   5.108
  178        1.575   3.525   0.000   5.100
  179        1.575   3.530   0.000   5.105
  180        1.575   3.529   0.000   5.104
  181        1.575   3.527   0.000   5.101
  182        1.575   3.530   0.000   5.105
  183        1.575   3.531   0.000   5.106
  184        1.574   3.530   0.000   5.104
  185        1.575   3.525   0.000   5.100
  186        1.591   3.525   0.000   5.116
  187        1.575   3.524   0.000   5.099
  188        1.575   3.530   0.000   5.105
  189        1.575   3.531   0.000   5.106
  190        1.574   3.530   0.000   5.104
  191        2.333   6.184   3.837  12.354
--------------------------------------------------
tot        191.135 386.742 949.0301526.906



 magnetization (x)

# of ion       s       p       d       tot
------------------------------------------
    1       -0.003  -0.000   0.000  -0.003
    2       -0.003  -0.000   0.000  -0.003
    3       -0.003  -0.000   0.000  -0.003
    4       -0.003  -0.000   0.000  -0.003
    5       -0.003  -0.000   0.000  -0.003
    6       -0.002  -0.000   0.000  -0.002
    7       -0.003  -0.000   0.000  -0.003
    8       -0.003  -0.000   0.000  -0.003
    9       -0.003  -0.000   0.000  -0.003
   10       -0.003  -0.000   0.000  -0.003
   11       -0.004  -0.000   0.000  -0.004
   12       -0.003  -0.000   0.000  -0.003
   13       -0.003  -0.000   0.000  -0.003
   14       -0.004  -0.000   0.000  -0.004
   15       -0.003  -0.000   0.000  -0.003
   16       -0.003  -0.000   0.000  -0.003
   17       -0.002   0.001   0.001  -0.000
   18       -0.002  -0.000   0.000  -0.002
   19       -0.003  -0.000   0.000  -0.003
   20       -0.002   0.001   0.001  -0.000
   21       -0.002  -0.000   0.000  -0.002
   22       -0.003  -0.000   0.000  -0.003
   23       -0.004  -0.000   0.000  -0.004
   24       -0.003  -0.000   0.000  -0.003
   25       -0.003  -0.000   0.000  -0.003
   26       -0.003  -0.000   0.000  -0.003
   27       -0.003  -0.000   0.000  -0.003
   28       -0.003  -0.000   0.000  -0.003
   29       -0.002   0.001   0.001  -0.000
   30       -0.002  -0.000   0.000  -0.002
   31       -0.000   0.001   0.001   0.002
   32       -0.003  -0.000   0.000  -0.003
   33       -0.003  -0.000   0.000  -0.003
   34       -0.002   0.001   0.001  -0.000
   35       -0.002  -0.000   0.000  -0.002
   36       -0.003  -0.000   0.000  -0.003
   37       -0.003  -0.000   0.000  -0.003
   38       -0.002  -0.000   0.000  -0.002
   39       -0.003  -0.000   0.000  -0.003
   40       -0.003  -0.000   0.000  -0.003
   41       -0.002  -0.000   0.000  -0.002
   42       -0.003  -0.000   0.000  -0.003
   43       -0.002   0.001   0.001  -0.000
   44       -0.002  -0.000   0.000  -0.002
   45       -0.003  -0.000   0.000  -0.003
   46       -0.002   0.001   0.001  -0.000
   47       -0.002  -0.000   0.000  -0.002
   48       -0.003  -0.000   0.000  -0.003
   49       -0.003  -0.000   0.000  -0.003
   50       -0.002  -0.000   0.000  -0.002
   51       -0.003  -0.000   0.000  -0.003
   52       -0.003  -0.000   0.000  -0.003
   53       -0.002  -0.000   0.000  -0.002
   54       -0.003  -0.000   0.000  -0.003
   55       -0.003  -0.000   0.000  -0.003
   56       -0.001   0.000   0.000  -0.000
   57       -0.003  -0.000   0.000  -0.003
   58       -0.003  -0.000   0.000  -0.003
   59       -0.001   0.000   0.000  -0.000
   60       -0.003  -0.000   0.000  -0.003
   61       -0.003  -0.000   0.000  -0.003
   62       -0.001   0.000   0.000  -0.000
   63       -0.003  -0.000   0.000  -0.003
   64       -0.003  -0.000   0.000  -0.003
   65       -0.002  -0.000   0.000  -0.002
   66       -0.003  -0.000   0.000  -0.003
   67       -0.003  -0.000   0.000  -0.003
   68       -0.001   0.000   0.000  -0.000
   69       -0.003  -0.000   0.000  -0.003
   70       -0.003  -0.000   0.000  -0.003
   71       -0.002  -0.000   0.000  -0.002
   72       -0.003  -0.000   0.000  -0.003
   73       -0.003  -0.000   0.000  -0.003
   74       -0.001   0.000   0.000  -0.000
   75       -0.003  -0.000   0.000  -0.002
   76       -0.002   0.001   0.002   0.001
   77       -0.001  -0.001   0.005   0.004
   78       -0.003  -0.000   0.000  -0.002
   79       -0.002   0.001   0.002   0.001
   80       -0.001  -0.001   0.005   0.004
   81       -0.003  -0.000   0.000  -0.003
   82       -0.003  -0.000   0.000  -0.003
   83       -0.001   0.000   0.000  -0.000
   84       -0.003  -0.000   0.000  -0.003
   85       -0.003  -0.000   0.000  -0.003
   86       -0.002  -0.000   0.000  -0.002
   87       -0.003  -0.000   0.000  -0.003
   88       -0.003  -0.000   0.000  -0.003
   89       -0.002  -0.000   0.000  -0.002
   90       -0.003  -0.000   0.000  -0.002
   91       -0.002   0.001   0.002   0.001
   92       -0.001  -0.001   0.005   0.004
   93       -0.003  -0.000   0.000  -0.003
   94       -0.003  -0.000   0.000  -0.003
   95       -0.002  -0.000   0.000  -0.002
   96       -0.002   0.001   0.000  -0.001
   97       -0.001   0.001   0.000   0.000
   98       -0.002   0.001   0.000  -0.000
   99       -0.002   0.002   0.000  -0.001
  100       -0.001   0.001   0.000  -0.000
  101       -0.002   0.001   0.000  -0.000
  102       -0.002   0.001   0.000  -0.001
  103       -0.001   0.001   0.000   0.000
  104       -0.002   0.001   0.000  -0.000
  105       -0.002   0.002   0.000  -0.001
  106       -0.002   0.001   0.000  -0.000
  107       -0.002   0.001   0.000  -0.000
  108       -0.002   0.002   0.000  -0.001
  109       -0.002   0.001   0.000  -0.000
  110       -0.002   0.001   0.000  -0.000
  111       -0.002   0.002   0.000  -0.000
  112        0.001   0.007   0.000   0.007
  113       -0.001   0.001   0.000  -0.000
  114       -0.002   0.002   0.000  -0.000
  115        0.001   0.007   0.000   0.007
  116       -0.001   0.001   0.000  -0.000
  117       -0.002   0.002   0.000  -0.001
  118       -0.002   0.001   0.000  -0.000
  119       -0.002   0.001   0.000  -0.000
  120       -0.002   0.001   0.000  -0.001
  121       -0.001   0.001   0.000   0.000
  122       -0.002   0.001   0.000  -0.000
  123       -0.002   0.002   0.000  -0.000
  124        0.001   0.007   0.000   0.007
  125       -0.001   0.001   0.000  -0.000
  126        0.003   0.014   0.000   0.017
  127       -0.002   0.001   0.000  -0.001
  128       -0.002   0.002   0.000  -0.000
  129        0.001   0.007   0.000   0.007
  130       -0.001   0.001   0.000  -0.000
  131       -0.002   0.002   0.000  -0.001
  132       -0.001   0.001   0.000  -0.000
  133       -0.002   0.001   0.000  -0.000
  134       -0.002   0.002   0.000  -0.001
  135       -0.001   0.001   0.000  -0.000
  136       -0.002   0.001   0.000  -0.000
  137       -0.002   0.002   0.000  -0.000
  138        0.001   0.007   0.000   0.007
  139       -0.001   0.001   0.000  -0.000
  140       -0.002   0.002   0.000  -0.000
  141        0.001   0.007   0.000   0.007
  142       -0.001   0.001   0.000  -0.000
  143       -0.002   0.001   0.000  -0.001
  144       -0.002   0.002   0.000  -0.000
  145       -0.002   0.001   0.000  -0.000
  146       -0.002   0.001   0.000  -0.001
  147       -0.002   0.002   0.000  -0.000
  148       -0.002   0.001   0.000  -0.000
  149       -0.002   0.001   0.000  -0.001
  150       -0.002   0.001   0.000  -0.001
  151       -0.002   0.001   0.000  -0.000
  152       -0.002   0.001   0.000  -0.001
  153       -0.002   0.001   0.000  -0.001
  154       -0.002   0.001   0.000  -0.000
  155       -0.002   0.001   0.000  -0.001
  156       -0.002   0.001   0.000  -0.001
  157       -0.002   0.001   0.000  -0.000
  158       -0.002   0.001   0.000  -0.001
  159       -0.002   0.001   0.000  -0.000
  160       -0.001   0.001   0.000  -0.001
  161       -0.002   0.001   0.000  -0.001
  162       -0.002   0.001   0.000  -0.001
  163       -0.002   0.001   0.000  -0.000
  164       -0.002   0.001   0.000  -0.001
  165       -0.002   0.002   0.000  -0.001
  166       -0.002   0.001   0.000  -0.000
  167       -0.002   0.001   0.000  -0.001
  168       -0.002   0.001   0.000  -0.001
  169       -0.002   0.001   0.000  -0.000
  170       -0.002   0.002   0.000   0.000
  171       -0.000   0.033   0.000   0.032
  172       -0.000   0.001   0.000   0.000
  173       -0.002   0.002   0.000   0.000
  174       -0.000   0.033   0.000   0.032
  175       -0.000   0.001   0.000   0.000
  176       -0.002   0.001   0.000  -0.001
  177       -0.002   0.001   0.000  -0.001
  178       -0.002   0.001   0.000  -0.000
  179       -0.002   0.001   0.000  -0.001
  180       -0.002   0.002   0.000  -0.000
  181       -0.002   0.001   0.000  -0.000
  182       -0.002   0.001   0.000  -0.001
  183       -0.002   0.001   0.000  -0.000
  184       -0.001   0.001   0.000  -0.001
  185       -0.002   0.002   0.000   0.000
  186       -0.000   0.033   0.000   0.032
  187       -0.000   0.001   0.000   0.000
  188       -0.002   0.001   0.000  -0.001
  189       -0.002   0.001   0.000  -0.000
  190       -0.001   0.001   0.000  -0.001
  191        0.081   0.020   1.932   2.033
--------------------------------------------------
tot         -0.291   0.277   1.973   1.959
 

 total amount of memory used by VASP MPI-rank0   141829. kBytes
=======================================================================

   base      :      30000. kBytes
   nonlr-proj:       8579. kBytes
   fftplans  :       2267. kBytes
   grid      :       5113. kBytes
   one-center:        373. kBytes
   HF        :        129. kBytes
   wavefun   :       5829. kBytes
   fock_wrk  :      89539. kBytes
 
  
  
 General timing and accounting informations for this job:
 ========================================================
  
                  Total CPU time used (sec):    22267.787
                            User time (sec):    19341.856
                          System time (sec):     2925.931
                         Elapsed time (sec):    22861.898
  
                   Maximum memory used (kb):      836016.
                   Average memory used (kb):          N/A
  
                          Minor page faults:      2948858
                          Major page faults:         1240
                 Voluntary context switches:      1450849
